Protein
   42
    1ACE   HH31    1  13.946  11.296   7.852  1.0702 -0.4231 -0.1127
    1ACE    CH3    2  13.914  11.373   7.783  0.4512 -0.0339  0.5964
    1ACE   HH32    3  13.918  11.465   7.841  0.5015 -0.5388  1.4215
    1ACE   HH33    4  13.815  11.345   7.745  1.0892  0.7788 -1.8068
    1ACE      C    5  14.008  11.376   7.664  0.8222 -0.3211  0.0705
    1ACE      O    6  14.121  11.427   7.673  0.6159  0.1511 -0.3402
    2ALA      N    7  13.963  11.309   7.557 -0.2627  0.4127 -0.4807
    2ALA      H    8  13.880  11.252   7.567  0.7504 -1.7789 -3.3567
    2ALA     CA    9  14.034  11.312   7.429 -0.3063  0.0591  0.8099
    2ALA     HA   10  14.135  11.274   7.441 -0.2889  0.4812  2.0893
    2ALA     CB   11  13.976  11.221   7.322 -0.1657  0.4229 -0.2830
    2ALA    HB1   12  13.872  11.242   7.301  0.4504  2.7837 -1.2491
    2ALA    HB2   13  14.040  11.226   7.234 -0.7951 -0.7994 -0.8478
    2ALA    HB3   14  13.991  11.119   7.360 -0.9395 -0.0497 -1.2167
    2ALA      C   15  14.029  11.458   7.365 -0.3430 -0.2975  0.0679
    2ALA      O   16  13.917  11.504   7.365 -0.0793 -0.0036 -0.2272
    3ALA      N   17  14.138  11.523   7.325 -0.6164  0.2591  0.0765
    3ALA      H   18  14.224  11.472   7.313  0.7649  2.4837 -0.0186
    3ALA     CA   19  14.142  11.667   7.297 -0.0236 -0.1782 -0.5259
    3ALA     HA   20  14.242  11.704   7.317  0.4057 -0.8773 -1.2842
    3ALA     CB   21  14.092  11.680   7.155  1.1139 -0.3859  0.6648
    3ALA    HB1   22  14.136  11.608   7.087  2.9536  0.7763  0.5760
    3ALA    HB2   23  13.986  11.656   7.146  1.2461 -0.6796 -0.2730
    3ALA    HB3   24  14.115  11.773   7.103  1.5354 -0.9647 -0.2012
    3ALA      C   25  14.051  11.740   7.405  0.3617 -0.0228  0.1188
    3ALA      O   26  13.950  11.802   7.371 -0.4855 -0.1247  0.5430
    4ALA      N   27  14.104  11.744   7.528  1.0849 -0.2637  0.4873
    4ALA      H   28  14.191  11.692   7.537  0.2502 -1.7555  0.3366
    4ALA     CA   29  14.040  11.776   7.664  0.0843  0.7568  0.5839
    4ALA     HA   30  14.083  11.705   7.734 -0.5508  0.3681  0.5898
    4ALA     CB   31  14.088  11.913   7.701  0.4119 -0.3596 -0.2402
    4ALA    HB1   32  14.066  11.979   7.617 -2.2697  0.5659  1.0729
    4ALA    HB2   33  14.030  11.951   7.785  1.0385  1.2048 -0.4839
    4ALA    HB3   34  14.194  11.917   7.722  0.2619  0.2045  0.4802
    4ALA      C   35  13.882  11.754   7.683 -0.9773 -0.0117 -0.0531
    4ALA      O   36  13.834  11.787   7.790 -0.4715  0.3533 -0.3075
    5NME      N   37  13.805  11.688   7.594  0.0480 -0.2897 -0.1898
    5NME      H   38  13.846  11.676   7.503  0.9177  2.5762 -0.2907
    5NME    CH3   39  13.664  11.656   7.611 -0.1562 -0.0918 -0.6970
    5NME   HH31   40  13.601  11.740   7.584  0.1258  1.0730  1.9854
    5NME   HH32   41  13.652  11.575   7.538 -1.0112 -1.0486  0.4627
    5NME   HH33   42  13.643  11.613   7.709  2.2261 -0.0319 -0.0959
  20.91516  20.91516  20.91516
