Protein
   22
    1ACE   HH31    1   8.210   5.884   6.723 -0.5528 -0.6314 -0.5851
    1ACE    CH3    2   8.300   5.830   6.692  0.0616 -0.1673  0.3168
    1ACE   HH32    3   8.357   5.809   6.783  1.1222  0.1461 -0.2641
    1ACE   HH33    4   8.357   5.881   6.615  1.7242 -3.1991 -0.6402
    1ACE      C    5   8.243   5.702   6.631  0.1539 -0.5789  0.7015
    1ACE      O    6   8.120   5.700   6.610  0.3973 -0.0302 -0.5691
    2ALA      N    7   8.328   5.608   6.597 -0.0339  0.3243  0.4056
    2ALA      H    8   8.426   5.630   6.605  0.2071  1.6650 -3.9237
    2ALA     CA    9   8.303   5.484   6.523  0.3800 -0.0047 -0.4119
    2ALA     HA   10   8.406   5.453   6.508 -0.0630 -0.4138 -2.8312
    2ALA     CB   11   8.229   5.382   6.602 -0.2104 -0.7825 -0.6319
    2ALA    HB1   12   8.122   5.386   6.582 -0.7009  0.5204  1.8508
    2ALA    HB2   13   8.270   5.281   6.589  1.2220 -0.2850 -0.2374
    2ALA    HB3   14   8.246   5.410   6.706 -0.3451  0.6913 -0.9913
    2ALA      C   15   8.235   5.502   6.377  0.6181 -0.2965  0.2450
    2ALA      O   16   8.227   5.407   6.304 -0.7090  0.2050 -0.4741
    3NME      N   17   8.184   5.620   6.338 -0.9847  0.1155  0.6504
    3NME      H   18   8.163   5.683   6.413 -1.0859  1.3422 -0.3879
    3NME    CH3   19   8.136   5.651   6.204  0.1536  0.2862  0.2822
    3NME   HH31   20   8.171   5.751   6.182  0.1679  0.1801 -0.2051
    3NME   HH32   21   8.183   5.591   6.126  1.6570 -0.2980  1.5810
    3NME   HH33   22   8.027   5.646   6.209  0.0171 -0.4947 -2.3511
  10.72160  10.72160  10.72160
