Protein
   32
    1ACE   HH31    1  11.351  11.781  11.419 -0.2231  1.8226  1.3772
    1ACE    CH3    2  11.450  11.779  11.465  0.4290 -0.4499 -0.0039
    1ACE   HH32    3  11.518  11.711  11.412  1.0200 -0.2866  0.5381
    1ACE   HH33    4  11.444  11.741  11.567  1.5686 -0.7351 -0.0269
    1ACE      C    5  11.499  11.923  11.463  0.9077  0.8220 -0.9346
    1ACE      O    6  11.531  11.978  11.566 -0.0492 -0.2118 -0.4668
    2ALA      N    7  11.506  11.980  11.343 -0.3578  0.0264  0.2014
    2ALA      H    8  11.499  11.914  11.267  1.5961  0.2840 -0.2388
    2ALA     CA    9  11.523  12.123  11.313  0.8263  0.0125  0.1899
    2ALA     HA   10  11.504  12.176  11.406  1.5415 -1.0052  0.9376
    2ALA     CB   11  11.673  12.143  11.287  0.1923  0.6521  0.2805
    2ALA    HB1   12  11.704  12.102  11.191  0.8576  2.9827 -0.5767
    2ALA    HB2   13  11.694  12.250  11.286 -0.1838  0.7256 -0.2720
    2ALA    HB3   14  11.723  12.090  11.368 -0.6016 -0.9618 -0.2269
    2ALA      C   15  11.426  12.174  11.199  0.6894 -0.2910  0.0545
    2ALA      O   16  11.454  12.151  11.080 -0.2208  0.1356 -0.4559
    3ALA      N   17  11.313  12.233  11.236 -0.0567 -0.6566 -0.4867
    3ALA      H   18  11.311  12.247  11.336  1.8777  0.4844 -0.5505
    3ALA     CA   19  11.194  12.252  11.163 -0.1502 -0.3408  0.3333
    3ALA     HA   20  11.219  12.231  11.060  3.4472 -2.1356  1.4208
    3ALA     CB   21  11.082  12.161  11.215  0.1964  0.1068  0.4648
    3ALA    HB1   22  11.081  12.157  11.324 -0.4539 -0.1190  0.4547
    3ALA    HB2   23  10.988  12.199  11.174  0.2702 -1.4745 -1.2998
    3ALA    HB3   24  11.105  12.064  11.172  0.8489 -0.3668  1.7891
    3ALA      C   25  11.150  12.398  11.179  0.4186 -0.3181 -0.2055
    3ALA      O   26  11.082  12.427  11.279  0.1126  0.1626  0.1917
    4NME      N   27  11.171  12.486  11.082  0.1218  0.4189  0.0772
    4NME      H   28  11.224  12.449  11.004  2.9918  1.3282  1.4663
    4NME    CH3   29  11.144  12.629  11.090  0.5108 -0.3539 -0.4276
    4NME   HH31   30  11.069  12.651  11.015  0.8534  0.1334 -0.6280
    4NME   HH32   31  11.106  12.645  11.191  0.4080 -0.4822 -0.4442
    4NME   HH33   32  11.237  12.683  11.075  0.3692 -0.1346 -0.5214
  20.99041  20.99041  20.99041
