Protein
   42
    1ACE   HH31    1  11.269  10.446  10.402 -0.5856 -0.5990  0.2118
    1ACE    CH3    2  11.181  10.448  10.337 -0.0758 -0.4109 -0.4753
    1ACE   HH32    3  11.161  10.344  10.312 -3.9055 -0.5092  2.0971
    1ACE   HH33    4  11.189  10.509  10.247 -2.6877  2.6738  1.1529
    1ACE      C    5  11.070  10.499  10.425 -0.1000 -0.5727  0.0229
    1ACE      O    6  11.033  10.429  10.514 -0.3397 -0.0225 -0.6928
    2ALA      N    7  11.012  10.619  10.400 -0.0663  0.4084 -0.1987
    2ALA      H    8  11.038  10.682  10.325 -0.1405 -0.1151 -0.6635
    2ALA     CA    9  10.889  10.666  10.466  0.1206  0.1457  1.0190
    2ALA     HA   10  10.845  10.583  10.522 -0.0319 -0.6185 -0.1936
    2ALA     CB   11  10.918  10.781  10.562  0.7097  1.0099  0.0460
    2ALA    HB1   12  10.843  10.765  10.639 -2.1579  1.1538 -2.5071
    2ALA    HB2   13  11.019  10.770  10.600  0.3010  0.3796  0.9823
    2ALA    HB3   14  10.895  10.881  10.525 -1.8813  0.1240 -0.9343
    2ALA      C   15  10.771  10.698  10.366 -0.2106  0.2260  0.3715
    2ALA      O   16  10.655  10.662  10.395 -0.4724  0.3109 -0.1144
    3ALA      N   17  10.772  10.767  10.254  0.6175 -0.8315  0.2222
    3ALA      H   18  10.676  10.783  10.225  0.3320  0.2616  1.6658
    3ALA     CA   19  10.880  10.831  10.176  0.3202 -0.4095  0.1803
    3ALA     HA   20  10.816  10.877  10.101 -0.9704 -1.5134  0.5475
    3ALA     CB   21  10.937  10.959  10.251 -0.4568 -0.0404  0.2140
    3ALA    HB1   22  11.021  11.006  10.198 -0.7516  1.3352  0.9464
    3ALA    HB2   23  10.855  11.027  10.272 -0.1933  0.2809  0.2269
    3ALA    HB3   24  10.983  10.927  10.345  0.8616 -1.2160 -0.7643
    3ALA      C   25  10.974  10.752  10.094 -0.3543  0.5024  0.6636
    3ALA      O   26  11.093  10.746  10.127 -0.1451 -0.4021 -0.1309
    4ALA      N   27  10.912  10.668  10.003 -0.1411 -0.0512  0.4819
    4ALA      H   28  10.811  10.670  10.008 -0.0834  0.8375  1.8402
    4ALA     CA   29  10.970  10.571   9.910 -0.1485 -0.4823 -0.5988
    4ALA     HA   30  10.989  10.617   9.814  1.8083  1.4122  0.5961
    4ALA     CB   31  11.094  10.496   9.959 -0.1002  0.0154  0.4354
    4ALA    HB1   32  11.132  10.432   9.880 -2.0311  2.9575 -3.1917
    4ALA    HB2   33  11.170  10.569   9.986  0.3794 -0.3341  0.0344
    4ALA    HB3   34  11.076  10.441  10.052  2.7266  1.5985  2.0737
    4ALA      C   35  10.863  10.468   9.881  0.4300 -0.6727  0.7368
    4ALA      O   36  10.748  10.507   9.878  0.2433  0.5638  0.2097
    5NME      N   37  10.896  10.341   9.843 -0.3581 -0.7094 -0.2821
    5NME      H   38  10.991  10.311   9.827 -0.5953 -0.9390 -1.4174
    5NME    CH3   39  10.805  10.234   9.797 -1.0513 -0.3848  0.2901
    5NME   HH31   40  10.853  10.138   9.811  1.6972  0.9594  0.8478
    5NME   HH32   41  10.711  10.234   9.852 -0.6554 -2.8626  1.1056
    5NME   HH33   42  10.767  10.261   9.698 -2.0036 -0.0205  0.7349
  20.91516  20.91516  20.91516
