Protein
   60
    1ACE   HH31    1  21.662  26.287  20.450 -0.2124 -0.0390 -1.1023
    1ACE    CH3    2  21.563  26.331  20.435 -0.4191 -0.1163 -0.0443
    1ACE   HH32    3  21.506  26.281  20.357 -0.6426  2.7164 -1.8507
    1ACE   HH33    4  21.506  26.330  20.528 -0.4622 -0.7814 -0.0802
    1ACE      C    5  21.567  26.479  20.392  0.1140  0.6450  0.2024
    1ACE      O    6  21.543  26.511  20.278  0.2060  0.1938  0.3399
    2TRP      N    7  21.590  26.575  20.477  0.2234 -0.1602 -0.3737
    2TRP      H    8  21.611  26.662  20.431 -0.3068 -0.1497 -0.6007
    2TRP     CA    9  21.632  26.572  20.620 -0.7446  0.1767 -0.5037
    2TRP     HA   10  21.692  26.482  20.637 -1.2755 -0.0239  0.3074
    2TRP     CB   11  21.721  26.699  20.644  0.7598 -0.7370 -0.1633
    2TRP    HB1   12  21.792  26.699  20.562 -0.2413 -2.1870 -1.0803
    2TRP    HB2   13  21.766  26.692  20.743 -0.5621 -0.4491  0.4879
    2TRP     CG   14  21.647  26.835  20.644  0.1024 -0.1476 -0.2714
    2TRP    CD1   15  21.594  26.885  20.751  0.7898 -0.0097 -0.1788
    2TRP    HD1   16  21.599  26.842  20.850  4.0166  0.8580  0.1637
    2TRP    NE1   17  21.546  27.012  20.724  0.2785  0.3184  0.5178
    2TRP    HE1   18  21.506  27.075  20.792 -1.1779  0.8238 -0.7300
    2TRP    CE2   19  21.570  27.049  20.592  0.3181  0.0395 -0.0780
    2TRP    CZ2   20  21.551  27.170  20.522 -0.3172  0.7329 -0.0867
    2TRP    HZ2   21  21.517  27.261  20.569  1.4170  1.7981 -0.8015
    2TRP    CH2   22  21.578  27.160  20.386 -0.0637 -1.3405  0.3886
    2TRP    HH2   23  21.571  27.250  20.326 -2.3018 -2.0977 -0.5976
    2TRP    CZ3   24  21.647  27.051  20.330 -0.9167 -0.4849  0.6067
    2TRP    HZ3   25  21.677  27.054  20.227 -1.7653 -1.4833  0.3143
    2TRP    CE3   26  21.678  26.936  20.406  0.2580  0.9222 -0.1961
    2TRP    HE3   27  21.727  26.851  20.359 -0.5427  0.1537  0.3105
    2TRP    CD2   28  21.640  26.936  20.540 -0.0795  0.3480  0.0429
    2TRP      C   29  21.527  26.564  20.737 -0.3515 -0.4352  0.7207
    2TRP      O   30  21.564  26.517  20.842  0.1380 -0.3680 -0.0188
    3TRP      N   31  21.404  26.607  20.727 -0.5560  0.3501  0.3336
    3TRP      H   32  21.354  26.588  20.813  0.5799  1.4417  1.2876
    3TRP     CA   33  21.322  26.658  20.613  0.3926  0.1502 -0.9176
    3TRP     HA   34  21.381  26.729  20.555  1.3787 -0.4126 -0.6438
    3TRP     CB   35  21.207  26.739  20.681 -0.0034  0.0334  0.6209
    3TRP    HB1   36  21.138  26.665  20.722  0.6827 -1.0305 -0.0988
    3TRP    HB2   37  21.248  26.804  20.757  0.6866  0.1134  0.1835
    3TRP     CG   38  21.141  26.836  20.581 -0.4188 -0.3031 -0.4934
    3TRP    CD1   39  21.194  26.957  20.551  0.1250  0.7512 -0.1422
    3TRP    HD1   40  21.289  26.999  20.580  0.1654  0.8264 -0.3692
    3TRP    NE1   41  21.107  27.018  20.460  0.1277  0.1223  0.1642
    3TRP    HE1   42  21.122  27.112  20.425 -1.3273  0.5476  0.6006
    3TRP    CE2   43  20.991  26.946  20.444 -0.6092 -0.1899 -0.6264
    3TRP    CZ2   44  20.875  26.972  20.371 -0.1728  0.4388  0.3320
    3TRP    HZ2   45  20.857  27.062  20.314 -1.1982 -1.0707 -1.8330
    3TRP    CH2   46  20.769  26.874  20.380 -0.5692 -0.0971  0.0741
    3TRP    HH2   47  20.675  26.894  20.331 -2.0728  1.5305  3.3090
    3TRP    CZ3   48  20.784  26.762  20.463  0.8925  0.0002  0.4295
    3TRP    HZ3   49  20.705  26.689  20.470  0.8717  0.1416  1.9996
    3TRP    CE3   50  20.902  26.740  20.533  0.4275 -0.4720  0.0132
    3TRP    HE3   51  20.914  26.652  20.595  0.6310 -1.7407 -1.7282
    3TRP    CD2   52  21.008  26.828  20.525 -0.1389  0.0852  0.9479
    3TRP      C   53  21.266  26.551  20.524  0.4161  0.2486  0.0257
    3TRP      O   54  21.277  26.434  20.556  0.3620  0.3891  0.6645
    4NME      N   55  21.201  26.582  20.412  0.5649 -0.5197  0.2218
    4NME      H   56  21.188  26.680  20.390  0.3247 -0.1590  1.9394
    4NME    CH3   57  21.159  26.483  20.314 -0.8062 -0.2958  0.1462
    4NME   HH31   58  21.245  26.430  20.272  0.2083  1.8495 -0.5999
    4NME   HH32   59  21.088  26.419  20.366 -0.7640  0.4175  1.1256
    4NME   HH33   60  21.128  26.543  20.229 -0.5969 -0.2186  0.1223
  41.12396  41.12396  41.12396
