Protein
   42
    1ACE   HH31    1  11.093  10.674   9.220 -1.0091  0.6678 -0.0179
    1ACE    CH3    2  10.986  10.658   9.203 -0.9793 -0.0275  0.3995
    1ACE   HH32    3  10.960  10.685   9.101  1.9096  0.6302 -0.2539
    1ACE   HH33    4  10.931  10.718   9.275 -0.9900  0.8985 -0.3479
    1ACE      C    5  10.941  10.522   9.232 -0.8126  0.3318  0.0107
    1ACE      O    6  10.823  10.499   9.249  0.1444  0.2334  0.1399
    2ALA      N    7  11.044  10.438   9.235 -0.4100  0.5028 -0.3857
    2ALA      H    8  11.137  10.475   9.220 -0.2029  0.5053  0.7848
    2ALA     CA    9  11.047  10.316   9.314  0.6971  0.3329  0.1803
    2ALA     HA   10  10.980  10.333   9.399 -0.5142 -2.5248 -0.1223
    2ALA     CB   11  10.992  10.198   9.229  0.2184 -0.6529 -0.4383
    2ALA    HB1   12  10.992  10.099   9.277 -1.1334  0.1137  1.2412
    2ALA    HB2   13  10.891  10.226   9.199  0.1985  2.6865  2.3037
    2ALA    HB3   14  11.059  10.190   9.144 -0.1571 -0.3652 -0.7611
    2ALA      C   15  11.184  10.283   9.371 -0.4391 -0.2737 -0.4972
    2ALA      O   16  11.285  10.342   9.319 -0.0092  0.3672 -0.6446
    3ALA      N   17  11.200  10.190   9.470 -0.0901 -0.0568  0.3180
    3ALA      H   18  11.298  10.173   9.491 -0.5408  0.5348  3.2956
    3ALA     CA   19  11.106  10.112   9.548  0.2024 -0.1106  0.1579
    3ALA     HA   20  11.075  10.027   9.488  2.9818 -1.6424  0.6819
    3ALA     CB   21  11.162  10.046   9.673 -0.2232  0.2353 -0.6681
    3ALA    HB1   22  11.088   9.983   9.722 -0.6487  1.5402  0.4569
    3ALA    HB2   23  11.249   9.987   9.645  0.8977  1.8602 -0.7535
    3ALA    HB3   24  11.189  10.117   9.752 -1.0710  0.5400 -0.6378
    3ALA      C   25  10.982  10.191   9.585  0.8611  0.0748 -0.0945
    3ALA      O   26  10.998  10.282   9.661 -0.4795 -0.2804  0.4978
    4ALA      N   27  10.865  10.155   9.539 -0.1167 -0.1384  0.0241
    4ALA      H   28  10.858  10.077   9.475  1.4638 -0.1313 -0.1823
    4ALA     CA   29  10.743  10.221   9.558  0.4759  0.2988 -0.0288
    4ALA     HA   30  10.760  10.329   9.550  1.7814  0.4800  3.4860
    4ALA     CB   31  10.645  10.167   9.451  0.3013 -0.4486 -0.4496
    4ALA    HB1   32  10.553  10.222   9.467  0.2548 -1.0417  1.7327
    4ALA    HB2   33  10.693  10.182   9.355  1.2911  0.6071  0.1900
    4ALA    HB3   34  10.622  10.065   9.482  0.8012 -0.1994  0.8311
    4ALA      C   35  10.686  10.187   9.703  0.2647 -0.1977 -0.0439
    4ALA      O   36  10.691  10.072   9.750  0.1284 -0.2741  0.4237
    5NME      N   37  10.641  10.295   9.769 -0.0754  0.1911 -0.0259
    5NME      H   38  10.672  10.377   9.718  1.3074 -1.7467 -2.5249
    5NME    CH3   39  10.615  10.316   9.910  0.8118 -0.2289 -0.4729
    5NME   HH31   40  10.507  10.307   9.924  0.1976  1.6164 -3.2252
    5NME   HH32   41  10.677  10.252   9.973  0.0467 -2.5657 -1.9468
    5NME   HH33   42  10.630  10.421   9.933 -1.1413 -0.3988  2.1292
  20.91516  20.91516  20.91516
