Protein
   22
    1ACE   HH31    1   7.967   9.364   9.796 -0.7008  0.0124 -0.6116
    1ACE    CH3    2   7.930   9.399   9.892  0.8927 -0.0835  0.0711
    1ACE   HH32    3   7.980   9.490   9.922  1.6372 -0.6933  0.7523
    1ACE   HH33    4   7.959   9.326   9.968  1.0139  1.2657  1.3683
    1ACE      C    5   7.775   9.423   9.881 -0.3447  0.6096 -0.5077
    1ACE      O    6   7.741   9.513   9.808  0.1447 -0.0907 -0.1638
    2ALA      N    7   7.697   9.341   9.953 -0.4866 -0.7087 -0.7923
    2ALA      H    8   7.748   9.282  10.017  1.4025  2.3610  0.7657
    2ALA     CA    9   7.549   9.345   9.934  0.0181 -0.2434 -0.2218
    2ALA     HA   10   7.519   9.446   9.905  1.3326  0.3363  0.3906
    2ALA     CB   11   7.504   9.252   9.818  0.1070 -0.2518  0.1264
    2ALA    HB1   12   7.556   9.284   9.728  0.4112  0.8318  0.6709
    2ALA    HB2   13   7.517   9.146   9.840  1.4334  0.1836  1.6709
    2ALA    HB3   14   7.398   9.269   9.798  0.1235 -0.3432 -0.0588
    2ALA      C   15   7.482   9.319  10.069  0.1984 -0.1852  0.2144
    2ALA      O   16   7.458   9.417  10.136  0.1016  0.6857 -0.9406
    3NME      N   17   7.442   9.190  10.097 -0.3520 -0.3069  0.5412
    3NME      H   18   7.491   9.120  10.044 -1.0626 -1.1716  0.9934
    3NME    CH3   19   7.382   9.149  10.220 -0.0350 -0.2410  0.8271
    3NME   HH31   20   7.456   9.158  10.299 -0.4084  0.3353  1.1240
    3NME   HH32   21   7.297   9.204  10.261  0.9235  1.8174  0.1537
    3NME   HH33   22   7.368   9.041  10.210  0.0911 -0.2879  1.1038
  10.72160  10.72160  10.72160
