Protein
   42
    1ACE   HH31    1  15.733  11.695   7.228 -1.5332  0.8428 -0.8433
    1ACE    CH3    2  15.697  11.751   7.315  0.1845  0.4914  0.1577
    1ACE   HH32    3  15.697  11.859   7.297  1.1096  0.5839  0.6675
    1ACE   HH33    4  15.765  11.739   7.399 -0.3890 -0.1937  0.5411
    1ACE      C    5  15.566  11.700   7.360 -0.2515 -0.1999 -0.2069
    1ACE      O    6  15.565  11.603   7.433 -0.1050  0.2486  0.0154
    2ALA      N    7  15.461  11.775   7.325  0.3446  0.1113  0.3012
    2ALA      H    8  15.476  11.859   7.270 -0.2457  0.1143  0.1438
    2ALA     CA    9  15.320  11.738   7.346  0.5034 -0.6311 -0.3067
    2ALA     HA   10  15.317  11.636   7.382  0.7628 -0.3786  0.4713
    2ALA     CB   11  15.271  11.833   7.461 -0.4400 -0.0933  1.1196
    2ALA    HB1   12  15.259  11.934   7.424 -0.0813  0.4472  2.4250
    2ALA    HB2   13  15.174  11.805   7.502 -2.3771  4.9623  0.6281
    2ALA    HB3   14  15.342  11.816   7.542 -0.4898 -0.4947  1.0856
    2ALA      C   15  15.223  11.755   7.227 -0.2706  0.6801  0.0843
    2ALA      O   16  15.237  11.856   7.168 -0.2555  0.2242  0.2766
    3ALA      N   17  15.139  11.659   7.189 -0.4254  0.3954 -0.4269
    3ALA      H   18  15.079  11.688   7.113 -0.7102  1.3674  0.1563
    3ALA     CA   19  15.121  11.520   7.242  1.0482 -0.4236 -0.1371
    3ALA     HA   20  15.131  11.513   7.351 -1.5383 -1.0740  0.1106
    3ALA     CB   21  14.975  11.485   7.212  0.0149 -0.0921  0.2842
    3ALA    HB1   22  14.963  11.476   7.104 -0.4435 -2.3235  0.4876
    3ALA    HB2   23  14.937  11.393   7.256 -1.7714 -0.2032 -1.3334
    3ALA    HB3   24  14.921  11.571   7.251  2.8339  0.5257  3.1557
    3ALA      C   25  15.215  11.415   7.177  0.0928 -0.1562  0.4061
    3ALA      O   26  15.252  11.320   7.247 -0.7314 -0.0396  0.0184
    4ALA      N   27  15.268  11.436   7.052  0.8141 -0.2498  0.5437
    4ALA      H   28  15.246  11.515   6.993  3.2371 -0.0733 -0.2336
    4ALA     CA   29  15.383  11.362   6.995 -0.8778  0.3288 -0.0682
    4ALA     HA   30  15.379  11.262   7.038 -2.4948 -0.5260 -2.0093
    4ALA     CB   31  15.359  11.359   6.839 -0.7922  0.0822 -0.6917
    4ALA    HB1   32  15.273  11.299   6.811 -1.1177  0.6748 -0.9852
    4ALA    HB2   33  15.353  11.461   6.801  1.4395  0.5729  0.1609
    4ALA    HB3   34  15.450  11.313   6.800 -0.6580  1.2736 -1.8235
    4ALA      C   35  15.520  11.439   7.015 -0.4639  0.5786 -0.2971
    4ALA      O   36  15.517  11.562   7.019 -0.0841 -0.2361 -0.3776
    5NME      N   37  15.631  11.360   7.020 -0.0308 -0.4079 -0.0259
    5NME      H   38  15.618  11.259   7.020 -0.6282 -0.3383 -0.4941
    5NME    CH3   39  15.766  11.418   7.045  0.1585  0.4167  0.1039
    5NME   HH31   40  15.775  11.461   7.145  1.6917 -1.6750  0.9473
    5NME   HH32   41  15.842  11.344   7.070  0.0674 -0.5906 -2.3727
    5NME   HH33   42  15.793  11.496   6.974 -2.7112 -0.3003 -1.9862
  20.91516  20.91516  20.91516
