Protein
   42
    1ACE   HH31    1   9.041  13.108   8.520 -1.8304  0.4811  2.6052
    1ACE    CH3    2   9.109  13.192   8.528  0.2880 -0.7956 -0.1694
    1ACE   HH32    3   9.051  13.272   8.482 -1.4158 -2.5589 -1.1603
    1ACE   HH33    4   9.199  13.167   8.472 -0.0937 -0.2191 -1.0618
    1ACE      C    5   9.137  13.208   8.679  0.2124 -0.2171  0.7130
    1ACE      O    6   9.074  13.131   8.748  0.3028  0.2092 -0.1411
    2ALA      N    7   9.240  13.285   8.716  0.1969 -0.4948 -0.5037
    2ALA      H    8   9.298  13.327   8.644 -0.9952  1.0801 -0.6014
    2ALA     CA    9   9.251  13.328   8.853 -0.8837  0.1975 -0.0799
    2ALA     HA   10   9.319  13.252   8.891 -1.3770 -0.7076 -0.9721
    2ALA     CB   11   9.331  13.459   8.848  0.9201 -0.3838 -0.6096
    2ALA    HB1   12   9.358  13.481   8.951  0.1869  0.5007 -0.5977
    2ALA    HB2   13   9.422  13.448   8.788  0.7742 -1.6310 -0.6458
    2ALA    HB3   14   9.275  13.538   8.798  0.5685 -0.5119 -0.4287
    2ALA      C   15   9.117  13.329   8.936 -0.8007  0.6085 -0.1972
    2ALA      O   16   9.031  13.406   8.904 -0.2313 -0.3446  0.1803
    3ALA      N   17   9.103  13.253   9.047 -0.3455 -1.0705  0.2430
    3ALA      H   18   9.016  13.274   9.094 -0.8498 -0.7896 -0.7923
    3ALA     CA   19   9.180  13.150   9.103 -0.6194 -0.2084 -0.0380
    3ALA     HA   20   9.280  13.157   9.059 -1.1229  3.1582 -0.9026
    3ALA     CB   21   9.200  13.183   9.253  0.7291 -0.4386 -0.0063
    3ALA    HB1   22   9.243  13.106   9.317 -1.2697  0.3062  2.3850
    3ALA    HB2   23   9.260  13.274   9.266  1.8799 -1.2585  0.6303
    3ALA    HB3   24   9.099  13.200   9.288  1.9146  0.8087  3.2222
    3ALA      C   25   9.118  13.020   9.066 -0.1242  0.5363 -0.3105
    3ALA      O   26   9.183  12.922   9.109  0.4090  0.4729  0.3605
    4ALA      N   27   9.005  13.014   8.993  0.1071 -0.2975 -0.4352
    4ALA      H   28   8.983  13.099   8.943 -0.7934 -1.1872 -1.6054
    4ALA     CA   29   8.921  12.899   8.989  0.1316 -0.6005  0.5904
    4ALA     HA   30   8.986  12.811   8.986  0.1950 -0.6049  1.8052
    4ALA     CB   31   8.839  12.901   9.117  0.6656 -0.4359  0.3464
    4ALA    HB1   32   8.795  12.804   9.139 -0.4552  0.1276  0.6520
    4ALA    HB2   33   8.906  12.925   9.201  1.1217  1.0985 -0.4116
    4ALA    HB3   34   8.751  12.965   9.117  0.7109 -0.2927  2.4878
    4ALA      C   35   8.821  12.898   8.870  0.0079  0.7530 -0.2670
    4ALA      O   36   8.741  12.804   8.871 -0.4553  0.1320 -0.3217
    5NME      N   37   8.821  12.993   8.772  0.2306 -0.0526  0.1791
    5NME      H   38   8.887  13.069   8.779  0.1385  0.0609 -0.1477
    5NME    CH3   39   8.729  12.986   8.662  0.2807  0.2273 -0.8034
    5NME   HH31   40   8.655  13.067   8.661 -2.3304 -2.0142 -1.3277
    5NME   HH32   41   8.784  12.979   8.569  0.5734 -0.1246 -0.6088
    5NME   HH33   42   8.672  12.893   8.666  1.5939 -0.5559  2.0368
  20.91516  20.91516  20.91516
