Protein
   42
    1ACE   HH31    1  13.373  12.064  12.624  0.8027  1.2979 -0.6090
    1ACE    CH3    2  13.480  12.046  12.628  0.6961  0.6886 -0.2851
    1ACE   HH32    3  13.536  12.120  12.686  0.1162  2.4036 -1.8056
    1ACE   HH33    4  13.527  12.041  12.530  0.1546  0.4196 -0.5326
    1ACE      C    5  13.496  11.914  12.705 -0.1846 -0.9248 -0.3659
    1ACE      O    6  13.402  11.876  12.768  0.6281  0.3516 -0.2661
    2ALA      N    7  13.622  11.875  12.712  0.0317  0.1502 -0.2293
    2ALA      H    8  13.681  11.939  12.663 -0.4496  0.2454 -0.6882
    2ALA     CA    9  13.668  11.758  12.789 -0.4997  0.2577  0.0422
    2ALA     HA   10  13.595  11.678  12.778  1.2693 -1.3371 -0.6627
    2ALA     CB   11  13.790  11.703  12.719 -0.5585 -0.5629  0.5752
    2ALA    HB1   12  13.779  11.711  12.611  2.2893  2.4660  0.3400
    2ALA    HB2   13  13.883  11.755  12.741 -0.2445 -0.7354 -0.2802
    2ALA    HB3   14  13.808  11.601  12.753  1.2510 -0.2026  0.8267
    2ALA      C   15  13.687  11.772  12.939  0.5845 -0.1006 -0.2301
    2ALA      O   16  13.788  11.725  12.991  0.2718  0.2285 -0.1080
    3ALA      N   17  13.585  11.832  13.001 -0.0728 -0.3974 -0.4524
    3ALA      H   18  13.503  11.857  12.948 -0.1511  0.2597 -0.0463
    3ALA     CA   19  13.567  11.860  13.143 -0.1547 -0.2172 -0.1401
    3ALA     HA   20  13.459  11.875  13.149  0.1698  2.1631  1.3116
    3ALA     CB   21  13.592  11.737  13.232 -0.0117 -0.1053 -0.3124
    3ALA    HB1   22  13.575  11.770  13.334  2.0402  2.5598 -0.7117
    3ALA    HB2   23  13.535  11.650  13.203 -0.5516  0.2755 -0.4232
    3ALA    HB3   24  13.698  11.712  13.230  0.0338  0.0782 -0.3541
    3ALA      C   25  13.634  11.994  13.178 -0.4904 -0.0500  0.0615
    3ALA      O   26  13.591  12.099  13.135 -0.2787 -0.6275  0.3614
    4ALA      N   27  13.736  11.979  13.266  0.0458 -0.6938  0.7894
    4ALA      H   28  13.764  11.885  13.293  1.8225 -0.2259  0.6868
    4ALA     CA   29  13.825  12.081  13.320  0.2994  0.0455 -0.4743
    4ALA     HA   30  13.889  12.033  13.393  0.7914  2.0402  0.4341
    4ALA     CB   31  13.930  12.125  13.218  0.0366  0.0217  0.2980
    4ALA    HB1   32  13.885  12.176  13.132 -0.9363 -1.5533 -0.1672
    4ALA    HB2   33  13.998  12.200  13.259 -0.1551  0.2321  0.2360
    4ALA    HB3   34  13.991  12.043  13.180  0.3756  0.0442  0.7810
    4ALA      C   35  13.764  12.201  13.399  0.0735  0.1303  0.2890
    4ALA      O   36  13.810  12.225  13.511  0.8620  0.0896  0.0101
    5NME      N   37  13.670  12.271  13.340 -0.0011 -0.4190 -0.1906
    5NME      H   38  13.631  12.246  13.251 -3.4555  0.6153  0.8767
    5NME    CH3   39  13.603  12.398  13.393  0.1836  0.1224  0.3767
    5NME   HH31   40  13.494  12.389  13.394  0.1922 -0.1895  2.0081
    5NME   HH32   41  13.634  12.402  13.498  1.3053 -1.7290  0.1428
    5NME   HH33   42  13.627  12.488  13.336  0.3329  0.9282  1.6498
  20.91516  20.91516  20.91516
