Protein
   42
    1ACE   HH31    1   9.069  14.623   6.153 -1.0778  0.1859 -0.1520
    1ACE    CH3    2   9.105  14.550   6.080  0.1429  0.7448 -0.1243
    1ACE   HH32    3   9.052  14.574   5.988  0.3196 -0.5899 -0.5885
    1ACE   HH33    4   9.071  14.449   6.102 -2.1496  1.1166 -1.6194
    1ACE      C    5   9.258  14.560   6.074 -0.1818  0.5729 -0.1387
    1ACE      O    6   9.326  14.469   6.121  0.6441 -0.0950 -0.2076
    2ALA      N    7   9.309  14.671   6.022 -0.0723  0.3155  0.4832
    2ALA      H    8   9.237  14.733   5.988 -0.4632 -0.9986 -1.2196
    2ALA     CA    9   9.446  14.718   6.004 -0.0047  0.5236 -0.2335
    2ALA     HA   10   9.451  14.804   5.936  0.2533 -0.2632 -1.2385
    2ALA     CB   11   9.501  14.762   6.138  0.9883 -0.5781 -0.0834
    2ALA    HB1   12   9.452  14.855   6.168 -0.1382 -0.7540 -1.2702
    2ALA    HB2   13   9.480  14.692   6.219 -2.1177  1.2300  0.8063
    2ALA    HB3   14   9.607  14.785   6.149  1.2321 -2.3103  1.7894
    2ALA      C   15   9.549  14.627   5.929 -0.1412 -0.2370 -0.1780
    2ALA      O   16   9.653  14.669   5.881 -0.2972 -0.8373  0.2340
    3ALA      N   17   9.526  14.494   5.916  0.8104  0.0476  0.2074
    3ALA      H   18   9.447  14.458   5.967  1.0339 -0.9136 -0.0985
    3ALA     CA   19   9.610  14.391   5.864 -0.0795  0.0395  0.1756
    3ALA     HA   20   9.540  14.308   5.861  0.8841 -0.7894  0.3735
    3ALA     CB   21   9.652  14.408   5.719  0.1060  0.1016 -0.6576
    3ALA    HB1   22   9.564  14.431   5.659  0.0376 -0.1400 -0.6512
    3ALA    HB2   23   9.715  14.496   5.713 -1.7614  1.3890 -2.1824
    3ALA    HB3   24   9.715  14.324   5.689  0.5700 -0.6278  2.1242
    3ALA      C   25   9.719  14.329   5.957  0.3143 -0.3243  0.2094
    3ALA      O   26   9.807  14.246   5.921  0.3493 -0.3693  0.3296
    4ALA      N   27   9.712  14.365   6.086 -0.2173 -0.0612  0.1011
    4ALA      H   28   9.632  14.423   6.109  0.3002  1.9116 -2.5461
    4ALA     CA   29   9.799  14.346   6.200 -0.1983  0.1679  0.5358
    4ALA     HA   30   9.753  14.394   6.287 -0.1938  0.5996  0.3053
    4ALA     CB   31   9.797  14.198   6.235 -0.9383  0.0939 -0.0892
    4ALA    HB1   32   9.690  14.180   6.245 -1.5604  3.1835 -0.1251
    4ALA    HB2   33   9.829  14.139   6.150  1.0404  1.1994 -0.1828
    4ALA    HB3   34   9.862  14.179   6.321 -1.1649  0.3481  0.1428
    4ALA      C   35   9.949  14.389   6.193 -0.1933 -0.7330  0.1651
    4ALA      O   36   9.995  14.442   6.293  0.6679 -0.0566 -0.1452
    5NME      N   37  10.023  14.364   6.088  0.6252  0.2562 -0.3570
    5NME      H   38   9.981  14.319   6.009  1.3244 -2.0497  0.4806
    5NME    CH3   39  10.170  14.348   6.095 -0.0561  0.7467 -0.1649
    5NME   HH31   40  10.197  14.279   6.175  1.1335  0.5541 -0.7179
    5NME   HH32   41  10.200  14.313   5.996 -0.8028 -0.7185  0.1011
    5NME   HH33   42  10.212  14.446   6.119  1.4755 -0.0349  0.4388
  20.91516  20.91516  20.91516
