Protein
   42
    1ACE   HH31    1  12.446  11.204   9.563 -1.4454 -2.2170 -2.3387
    1ACE    CH3    2  12.541  11.167   9.525 -0.0388 -1.0331 -0.1606
    1ACE   HH32    3  12.516  11.066   9.493  1.5090 -1.9392  1.3543
    1ACE   HH33    4  12.620  11.159   9.600  0.0646  1.9332  0.1666
    1ACE      C    5  12.588  11.245   9.401  0.7621 -0.5552  0.3237
    1ACE      O    6  12.701  11.228   9.356 -0.1141  0.3492  0.3549
    2ALA      N    7  12.501  11.332   9.349  0.3100 -0.1891  0.3529
    2ALA      H    8  12.414  11.351   9.397 -0.6883 -1.8691 -0.6728
    2ALA     CA    9  12.524  11.415   9.235 -0.2251  0.3159  0.0802
    2ALA     HA   10  12.626  11.406   9.198 -0.3632 -0.5961 -0.0923
    2ALA     CB   11  12.450  11.359   9.115  0.3245  0.2951  0.1005
    2ALA    HB1   12  12.453  11.428   9.031 -2.4527  2.3802  1.5354
    2ALA    HB2   13  12.479  11.257   9.089  0.7713 -0.3115  2.6787
    2ALA    HB3   14  12.343  11.347   9.134 -0.2155  1.5350 -1.9207
    2ALA      C   15  12.481  11.557   9.268 -0.1330 -0.3509  0.4157
    2ALA      O   16  12.406  11.589   9.361  0.1473  0.1288  0.2109
    3ALA      N   17  12.532  11.650   9.193 -0.2195 -0.7204  0.1714
    3ALA      H   18  12.583  11.621   9.111 -1.6131 -0.4428 -0.8326
    3ALA     CA   19  12.527  11.797   9.229  0.3107  0.0232 -0.0354
    3ALA     HA   20  12.508  11.812   9.335  1.7210 -0.1760  0.2588
    3ALA     CB   21  12.665  11.857   9.205 -0.2955 -0.5013  0.2897
    3ALA    HB1   22  12.700  11.820   9.109 -0.2412 -1.4786  0.6764
    3ALA    HB2   23  12.657  11.965   9.214 -1.7011 -0.6211  0.6250
    3ALA    HB3   24  12.727  11.813   9.283 -2.2209 -1.5281  1.3269
    3ALA      C   25  12.422  11.860   9.134  0.6126  0.5184 -1.3645
    3ALA      O   26  12.381  11.802   9.030  0.6400  0.0540 -0.2024
    4ALA      N   27  12.367  11.976   9.174 -0.0772  0.0793  0.5859
    4ALA      H   28  12.416  12.033   9.242  1.4879  2.6670 -2.4100
    4ALA     CA   29  12.230  12.025   9.131 -0.6344 -0.3071  0.0636
    4ALA     HA   30  12.177  12.072   9.214  0.1551  2.3780 -0.8306
    4ALA     CB   31  12.242  12.138   9.030 -0.5348  0.6335 -0.6927
    4ALA    HB1   32  12.145  12.167   8.990 -1.4611 -0.8966  0.4050
    4ALA    HB2   33  12.278  12.223   9.088  0.6961 -0.9831  1.0171
    4ALA    HB3   34  12.292  12.109   8.937 -1.8347 -0.6258 -1.0353
    4ALA      C   35  12.131  11.911   9.085  0.1311 -0.9535 -0.4764
    4ALA      O   36  12.042  11.931   9.000 -0.0892 -0.3996 -0.3669
    5NME      N   37  12.126  11.797   9.154 -0.4241  0.3880 -0.6037
    5NME      H   38  12.195  11.786   9.227  0.0760  0.6849 -1.0253
    5NME    CH3   39  12.035  11.691   9.119  0.4576 -0.3623 -0.5285
    5NME   HH31   40  11.931  11.721   9.129  0.5850  0.5893 -1.8910
    5NME   HH32   41  12.045  11.670   9.013  0.4260 -0.3627 -0.5306
    5NME   HH33   42  12.047  11.604   9.183  1.9283  0.7379  0.7776
  20.91516  20.91516  20.91516
