Protein
   42
    1ACE   HH31    1   6.928  12.077   8.209 -1.7960  0.0771  1.0277
    1ACE    CH3    2   6.907  12.148   8.129 -0.3409 -0.1958  0.3592
    1ACE   HH32    3   6.821  12.212   8.154 -0.8725  0.4385 -2.6136
    1ACE   HH33    4   6.884  12.093   8.038 -0.5346 -2.1349  1.5225
    1ACE      C    5   7.016  12.249   8.096 -0.3976  0.5306  0.1642
    1ACE      O    6   7.031  12.304   7.984  0.2075 -0.4631  0.0266
    2ALA      N    7   7.096  12.276   8.199  0.7378  0.5661 -0.1493
    2ALA      H    8   7.054  12.260   8.290 -2.5989 -0.9905 -1.7983
    2ALA     CA    9   7.215  12.360   8.188 -0.0522 -0.0763 -0.6700
    2ALA     HA   10   7.258  12.362   8.288 -1.8647 -0.3070  0.1574
    2ALA     CB   11   7.318  12.283   8.110 -0.0864 -0.2426  0.4391
    2ALA    HB1   12   7.301  12.281   8.002 -0.7858  1.0755  0.5066
    2ALA    HB2   13   7.413  12.334   8.127 -0.5003  0.3092  1.1762
    2ALA    HB3   14   7.329  12.181   8.146 -1.9076 -0.0898  1.4971
    2ALA      C   15   7.190  12.511   8.159  0.7299  0.5971 -0.1902
    2ALA      O   16   7.159  12.584   8.250 -0.2514 -0.0202  0.2974
    3ALA      N   17   7.205  12.549   8.033 -0.2332 -0.2328  0.3567
    3ALA      H   18   7.230  12.476   7.967 -2.4136  0.0174 -0.8438
    3ALA     CA   19   7.177  12.683   7.978  0.3253  0.0060  0.6476
    3ALA     HA   20   7.112  12.731   8.050  0.1863  0.5031  0.1931
    3ALA     CB   21   7.307  12.765   7.975  0.7794  0.0524 -0.2997
    3ALA    HB1   22   7.288  12.868   7.945  0.2360  0.2037  0.4959
    3ALA    HB2   23   7.354  12.773   8.073  1.9476 -0.4976 -0.8041
    3ALA    HB3   24   7.370  12.721   7.899  0.6047 -1.0956  0.1968
    3ALA      C   25   7.105  12.676   7.837  0.8614  0.3151  0.3622
    3ALA      O   26   7.118  12.766   7.760 -0.5898  0.2600 -0.3725
    4ALA      N   27   7.021  12.571   7.822  0.3203  0.1291 -0.1304
    4ALA      H   28   7.020  12.493   7.886  2.5606  0.1211 -0.0292
    4ALA     CA   29   6.963  12.526   7.692 -0.4360  0.0059  0.1798
    4ALA     HA   30   6.960  12.418   7.705  1.1892 -0.2727 -1.3569
    4ALA     CB   31   6.816  12.555   7.670  0.0725 -0.0279 -0.0355
    4ALA    HB1   32   6.759  12.489   7.735  1.6431 -1.9242 -0.4609
    4ALA    HB2   33   6.787  12.659   7.683 -1.5353 -0.4194 -0.2977
    4ALA    HB3   34   6.793  12.540   7.565  2.8685  1.8473 -1.0230
    4ALA      C   35   7.031  12.544   7.552 -0.0612  0.7157 -0.4802
    4ALA      O   36   7.036  12.451   7.471 -0.3160 -0.1631 -0.2254
    5NME      N   37   7.070  12.667   7.520  0.7448  0.2308  0.7804
    5NME      H   38   7.049  12.733   7.594 -0.4049 -1.4174  2.0396
    5NME    CH3   39   7.124  12.713   7.390 -0.4080  0.3912  0.2383
    5NME   HH31   40   7.041  12.760   7.338 -1.2657 -0.3552  0.8841
    5NME   HH32   41   7.210  12.780   7.399 -0.4267  0.3725  0.5840
    5NME   HH33   42   7.145  12.624   7.331 -0.5306 -0.9045  2.0726
  20.91516  20.91516  20.91516
