Protein
   32
    1ACE   HH31    1  10.106  11.023   5.936  1.6215 -0.7410 -0.4395
    1ACE    CH3    2  10.144  11.097   5.865 -0.1946  0.4157 -0.2725
    1ACE   HH32    3  10.232  11.147   5.904 -1.1122  1.7489  0.1309
    1ACE   HH33    4  10.065  11.167   5.839 -1.8008 -1.7780 -1.7423
    1ACE      C    5  10.175  11.027   5.729  0.0628 -0.2096  0.3368
    1ACE      O    6  10.167  11.087   5.622  0.2237 -0.1573 -0.8113
    2ALA      N    7  10.184  10.891   5.729  0.1607  0.1195 -0.5024
    2ALA      H    8  10.207  10.847   5.817 -0.3109  0.9939  0.0633
    2ALA     CA    9  10.239  10.810   5.615  0.2661 -0.1795  0.4120
    2ALA     HA   10  10.272  10.716   5.659 -3.9904 -1.3823  1.4511
    2ALA     CB   11  10.117  10.775   5.533 -0.3834  0.4714  0.4867
    2ALA    HB1   12  10.144  10.702   5.456 -1.9659 -0.1169  0.4597
    2ALA    HB2   13  10.054  10.714   5.598  2.5708 -2.8504  0.6359
    2ALA    HB3   14  10.081  10.868   5.489  0.7911  0.6208 -0.2101
    2ALA      C   15  10.350  10.857   5.517 -0.0238  0.4164  0.5632
    2ALA      O   16  10.417  10.775   5.453 -0.3392 -0.6615 -0.3203
    3ALA      N   17  10.370  10.986   5.491 -0.5233  0.3439  0.3824
    3ALA      H   18  10.307  11.052   5.535  0.3716  0.7040  1.1712
    3ALA     CA   19  10.472  11.041   5.403 -0.9415  0.1486  0.0320
    3ALA     HA   20  10.458  10.985   5.310  1.4226  0.3469 -0.4993
    3ALA     CB   21  10.440  11.190   5.376 -0.1166  0.0320  0.7632
    3ALA    HB1   22  10.431  11.238   5.474  1.5376 -0.0534  0.9852
    3ALA    HB2   23  10.527  11.237   5.329  0.0152 -2.6349 -1.9039
    3ALA    HB3   24  10.344  11.191   5.325  0.2351 -1.3119  0.0586
    3ALA      C   25  10.608  11.029   5.474 -0.5076 -0.0287 -0.3376
    3ALA      O   26  10.613  11.078   5.588 -0.1979  0.5381  0.9163
    4NME      N   27  10.709  10.964   5.422  0.1318  0.1355 -0.7958
    4NME      H   28  10.689  10.917   5.335 -1.0539  0.6402 -0.8199
    4NME    CH3   29  10.844  10.951   5.480 -0.3127  0.0959  0.5482
    4NME   HH31   30  10.849  10.996   5.579 -0.8425  0.3530  0.4592
    4NME   HH32   31  10.875  10.847   5.484 -1.4943 -0.2509  0.9488
    4NME   HH33   32  10.918  10.994   5.412  1.1995  0.6843  2.4622
  20.99041  20.99041  20.99041
