Protein
   42
    1ACE   HH31    1  11.951  10.876   3.579  0.1049 -0.4349  0.1184
    1ACE    CH3    2  11.853  10.921   3.594  0.2409 -0.1979  0.2906
    1ACE   HH32    3  11.785  10.894   3.513 -1.4225 -0.2930  1.6589
    1ACE   HH33    4  11.856  11.030   3.600  1.8672 -0.1931 -0.0084
    1ACE      C    5  11.802  10.877   3.727 -1.2362  0.8711 -0.1347
    1ACE      O    6  11.873  10.889   3.826  0.1979  0.0104 -0.8651
    2ALA      N    7  11.681  10.829   3.739  0.3881 -0.1048  0.0410
    2ALA      H    8  11.630  10.822   3.652  1.3756 -1.6708 -0.4634
    2ALA     CA    9  11.633  10.748   3.852  0.8886  0.2604  0.3290
    2ALA     HA   10  11.651  10.811   3.939  0.5411  1.8418 -0.6927
    2ALA     CB   11  11.488  10.716   3.826 -0.0103  0.1659 -0.1928
    2ALA    HB1   12  11.472  10.656   3.737  2.5818  0.1348 -0.6853
    2ALA    HB2   13  11.438  10.669   3.911 -0.8301  1.5222  0.1094
    2ALA    HB3   14  11.432  10.810   3.825  0.1970  0.3031  0.5128
    2ALA      C   15  11.723  10.624   3.880 -0.4069 -0.2335 -1.3622
    2ALA      O   16  11.673  10.514   3.875 -0.2025  0.3550 -0.0956
    3ALA      N   17  11.852  10.641   3.906  0.0312  0.5373 -0.1589
    3ALA      H   18  11.885  10.737   3.912 -0.9292  0.9458 -1.1311
    3ALA     CA   19  11.961  10.538   3.908 -0.0630 -0.5212  0.1520
    3ALA     HA   20  12.054  10.579   3.948 -1.0706  1.3740  0.7503
    3ALA     CB   21  11.929  10.433   4.021  0.4964 -0.5658  0.1073
    3ALA    HB1   22  11.843  10.369   3.999 -0.6393  1.3379 -1.3085
    3ALA    HB2   23  12.016  10.369   4.033  1.3021  0.4035 -0.4141
    3ALA    HB3   24  11.922  10.482   4.118 -1.0074  1.1597 -0.8090
    3ALA      C   25  11.990  10.471   3.774  0.4936 -0.6226 -0.1246
    3ALA      O   26  12.102  10.442   3.740  0.0990 -0.3444 -0.0225
    4ALA      N   27  11.884  10.435   3.701 -0.1837  0.0871  0.1182
    4ALA      H   28  11.790  10.435   3.739 -0.5701 -1.3549 -0.7516
    4ALA     CA   29  11.902  10.385   3.567  0.3624  0.3954  0.2156
    4ALA     HA   30  11.980  10.309   3.562  0.4048  0.4923 -1.2646
    4ALA     CB   31  11.765  10.321   3.525  0.5529  0.1147  0.6431
    4ALA    HB1   32  11.674  10.372   3.558 -0.1535 -1.2623  0.8805
    4ALA    HB2   33  11.767  10.307   3.417 -1.4877  1.7134  0.3236
    4ALA    HB3   34  11.757  10.216   3.553 -0.0475 -0.2102 -0.6681
    4ALA      C   35  11.944  10.500   3.468 -0.0934  0.0649  0.5000
    4ALA      O   36  11.861  10.566   3.408 -0.5015 -0.8804  0.2459
    5NME      N   37  12.071  10.517   3.440 -0.3942 -0.2099  0.2510
    5NME      H   38  12.133  10.460   3.496 -0.1486 -1.4562 -1.2302
    5NME    CH3   39  12.131  10.612   3.343  0.5401 -0.6891  0.0964
    5NME   HH31   40  12.135  10.717   3.375  2.1763 -0.3094 -1.1863
    5NME   HH32   41  12.232  10.573   3.326  0.9718  0.7904 -0.9702
    5NME   HH33   42  12.094  10.591   3.243  0.1729 -1.4501  0.3871
  20.91516  20.91516  20.91516
