Protein
   42
    1ACE   HH31    1  13.376  15.543   7.776 -0.2461 -0.1433  0.3250
    1ACE    CH3    2  13.459  15.495   7.724 -0.2054  0.1222  0.1365
    1ACE   HH32    3  13.541  15.567   7.718 -0.5799  0.5038 -0.5653
    1ACE   HH33    4  13.430  15.463   7.624 -0.5936 -0.9645  0.5768
    1ACE      C    5  13.496  15.375   7.795  0.6690  1.3370 -0.0604
    1ACE      O    6  13.421  15.330   7.882  0.2274  0.3083 -0.4381
    2ALA      N    7  13.606  15.319   7.758  0.0133 -0.6321  0.2445
    2ALA      H    8  13.645  15.361   7.674 -0.9809  2.1530  1.0646
    2ALA     CA    9  13.677  15.208   7.811 -0.1629  0.1340  0.3975
    2ALA     HA   10  13.614  15.155   7.882 -0.6245 -0.3814 -0.3690
    2ALA     CB   11  13.713  15.122   7.692 -0.4180  0.8375  0.8149
    2ALA    HB1   12  13.625  15.094   7.634  0.9613 -0.3770 -0.7823
    2ALA    HB2   13  13.783  15.179   7.630 -2.3507  2.9332  0.4796
    2ALA    HB3   14  13.770  15.033   7.723 -0.9770  0.0140 -0.4421
    2ALA      C   15  13.800  15.261   7.887  0.3932 -0.1297  0.3120
    2ALA      O   16  13.880  15.327   7.830  0.2242  0.0910 -0.0379
    3ALA      N   17  13.817  15.244   8.016 -0.2612 -0.0052 -0.7077
    3ALA      H   18  13.901  15.285   8.056 -0.4056  0.4027 -0.8227
    3ALA     CA   19  13.735  15.163   8.105  0.0206  0.3044 -0.5445
    3ALA     HA   20  13.691  15.077   8.055  1.8197 -2.2052  1.9113
    3ALA     CB   21  13.823  15.103   8.213 -0.8809 -0.0133 -0.7279
    3ALA    HB1   22  13.769  15.047   8.289 -1.8261  1.4909 -0.2617
    3ALA    HB2   23  13.900  15.040   8.169  0.5956  2.2421 -1.5151
    3ALA    HB3   24  13.879  15.186   8.256  1.2451 -1.3274 -0.8144
    3ALA      C   25  13.616  15.242   8.167 -0.2316  0.2982  0.8280
    3ALA      O   26  13.522  15.175   8.206 -0.1465 -0.1965 -0.3835
    4ALA      N   27  13.632  15.376   8.165 -0.0311  0.7673  0.3225
    4ALA      H   28  13.720  15.409   8.126 -0.1471  1.7884  0.8988
    4ALA     CA   29  13.525  15.474   8.201  0.2222 -0.4316  0.0298
    4ALA     HA   30  13.559  15.537   8.283 -0.9620  1.4388 -0.8495
    4ALA     CB   31  13.514  15.578   8.090 -0.6228  0.1943  0.2041
    4ALA    HB1   32  13.436  15.651   8.111 -0.4177  0.8573 -1.2545
    4ALA    HB2   33  13.608  15.633   8.084 -1.9758  2.5520 -1.1543
    4ALA    HB3   34  13.491  15.537   7.992 -0.4298  0.3357  0.0984
    4ALA      C   35  13.378  15.427   8.238 -0.4110  0.6926  0.3073
    4ALA      O   36  13.324  15.449   8.343  0.7671  0.0245  0.7570
    5NME      N   37  13.306  15.366   8.140 -0.0576  0.2796 -0.5758
    5NME      H   38  13.350  15.345   8.051  0.1706  1.3124 -0.7123
    5NME    CH3   39  13.168  15.310   8.152  0.4060  0.5267  0.3786
    5NME   HH31   40  13.095  15.391   8.152  1.1476  1.2218 -1.4399
    5NME   HH32   41  13.147  15.242   8.069 -1.7315  1.7698 -0.1787
    5NME   HH33   42  13.165  15.262   8.250 -3.2388  2.3425  1.3226
  20.91516  20.91516  20.91516
