Protein
   22
    1ACE   HH31    1   3.902   8.021   6.339 -0.6959 -0.4562 -2.5185
    1ACE    CH3    2   3.821   7.991   6.406  0.7775  0.0698 -0.4110
    1ACE   HH32    3   3.741   8.044   6.356  0.0921 -2.2110 -1.8569
    1ACE   HH33    4   3.837   8.025   6.509 -0.5507 -1.6706  0.4175
    1ACE      C    5   3.807   7.842   6.405  0.1866  0.1682 -0.2454
    1ACE      O    6   3.705   7.792   6.363  0.5650 -0.3524  0.2046
    2ALA      N    7   3.916   7.774   6.448 -0.6136  0.1502  0.3316
    2ALA      H    8   3.998   7.828   6.473  0.6723 -1.6071  0.0963
    2ALA     CA    9   3.923   7.632   6.455 -0.6837  0.4337  0.2667
    2ALA     HA   10   3.839   7.585   6.405  0.0254 -0.5866  0.0056
    2ALA     CB   11   4.038   7.588   6.363  0.4377 -0.3821 -0.4409
    2ALA    HB1   12   4.130   7.643   6.384  0.3576  0.4698 -2.1775
    2ALA    HB2   13   4.039   7.480   6.376 -0.6429 -0.3203  0.4687
    2ALA    HB3   14   4.011   7.594   6.258 -3.2579 -1.9032  0.2442
    2ALA      C   15   3.932   7.582   6.600 -0.5588 -0.5945 -0.1099
    2ALA      O   16   3.830   7.582   6.664  0.1214 -0.1294  0.3095
    3NME      N   17   4.049   7.532   6.644 -0.0644  0.4178  0.4387
    3NME      H   18   4.123   7.522   6.576 -1.4715 -3.3425 -0.7944
    3NME    CH3   19   4.085   7.504   6.785 -0.7013 -0.0987 -0.4835
    3NME   HH31   20   4.071   7.589   6.850  3.0434 -0.6711  1.3550
    3NME   HH32   21   4.040   7.412   6.822 -0.3094 -0.0822  0.0489
    3NME   HH33   22   4.193   7.490   6.786 -0.4655  1.4808 -1.4697
  10.72160  10.72160  10.72160
