Protein
   42
    1ACE   HH31    1  11.334  11.485  13.785  1.5439 -0.4809 -1.2818
    1ACE    CH3    2  11.302  11.380  13.788 -0.8388  0.2160 -0.5485
    1ACE   HH32    3  11.200  11.369  13.749 -1.2698  1.8083  0.0366
    1ACE   HH33    4  11.289  11.358  13.894  1.0599 -0.3433 -0.4071
    1ACE      C    5  11.412  11.288  13.720  0.4585  0.2767 -0.3865
    1ACE      O    6  11.516  11.258  13.784 -0.1160  0.3850 -0.6961
    2ALA      N    7  11.390  11.247  13.592 -0.2510 -0.1653 -0.1466
    2ALA      H    8  11.299  11.270  13.555 -0.1132 -2.5086 -2.1015
    2ALA     CA    9  11.466  11.149  13.519 -0.5633 -0.2249  0.8940
    2ALA     HA   10  11.571  11.143  13.548 -0.7615 -0.9322  1.5239
    2ALA     CB   11  11.415  11.007  13.552 -0.4496 -0.0326 -0.3308
    2ALA    HB1   12  11.311  10.993  13.521 -0.5477  0.4877 -0.2504
    2ALA    HB2   13  11.488  10.934  13.517  2.0114  0.4740  3.3045
    2ALA    HB3   14  11.414  10.997  13.660 -1.3778 -1.1868 -0.4378
    2ALA      C   15  11.442  11.161  13.369  0.9126  0.1714  0.2437
    2ALA      O   16  11.324  11.192  13.332 -0.8503 -0.0698  0.2096
    3ALA      N   17  11.536  11.136  13.280 -0.5007  0.4216  0.1730
    3ALA      H   18  11.512  11.129  13.182  3.6287  1.0300 -1.0930
    3ALA     CA   19  11.664  11.068  13.302  0.3172  0.1978 -0.7649
    3ALA     HA   20  11.653  10.987  13.374 -0.6925  1.3859  0.4593
    3ALA     CB   21  11.710  11.001  13.168  0.1154  0.2677 -0.1001
    3ALA    HB1   22  11.741  11.072  13.091 -1.7039 -0.0452 -1.2151
    3ALA    HB2   23  11.790  10.934  13.198 -0.5650 -0.4103  0.2350
    3ALA    HB3   24  11.633  10.940  13.119  0.2610 -0.6356  0.7656
    3ALA      C   25  11.784  11.154  13.342 -0.8810 -1.0582 -0.7595
    3ALA      O   26  11.896  11.108  13.366  1.1251 -0.2868  0.2697
    4ALA      N   27  11.766  11.284  13.355  0.4611  0.0050  0.6497
    4ALA      H   28  11.683  11.328  13.318  0.5493 -1.4451 -1.4146
    4ALA     CA   29  11.857  11.389  13.417 -0.2710 -0.4274  0.2239
    4ALA     HA   30  11.915  11.428  13.333 -2.1933  0.3020 -0.8221
    4ALA     CB   31  11.783  11.505  13.484  0.0483  0.3520  0.7341
    4ALA    HB1   32  11.707  11.549  13.420  0.8631  0.5654 -0.0991
    4ALA    HB2   33  11.742  11.467  13.578  1.6430  1.8196  2.1086
    4ALA    HB3   34  11.858  11.579  13.514  0.6769 -0.6801  1.8030
    4ALA      C   35  11.962  11.339  13.523 -0.1127 -0.5926 -0.6221
    4ALA      O   36  12.066  11.402  13.535  0.3605  0.0936 -0.1140
    5NME      N   37  11.944  11.234  13.598  0.2017  1.0184 -0.3029
    5NME      H   38  11.865  11.173  13.578  1.0386  0.0473 -0.7573
    5NME    CH3   39  12.022  11.192  13.713  0.6890  0.1494 -0.1198
    5NME   HH31   40  12.129  11.207  13.696  0.6180  0.1207 -0.5980
    5NME   HH32   41  11.996  11.249  13.802 -1.0262 -2.5359  1.2452
    5NME   HH33   42  12.002  11.090  13.747 -0.0653  0.0250 -0.9264
  20.91516  20.91516  20.91516
