Protein
   32
    1ACE   HH31    1  15.285  12.308  10.806  0.7067  1.3370 -1.5658
    1ACE    CH3    2  15.356  12.226  10.821 -0.3791  0.7649  0.8117
    1ACE   HH32    3  15.368  12.209  10.928 -0.2022 -0.6036  0.5935
    1ACE   HH33    4  15.448  12.264  10.777  1.7079 -2.9819  1.5045
    1ACE      C    5  15.313  12.099  10.757 -0.6571  0.6605  0.8022
    1ACE      O    6  15.396  12.012  10.731 -1.0836 -0.0837 -0.0752
    2ALA      N    7  15.183  12.091  10.726 -0.7326  0.3961 -0.2657
    2ALA      H    8  15.118  12.165  10.748 -1.4602 -0.3562  0.1595
    2ALA     CA    9  15.142  11.981  10.641 -0.7882  0.4072 -0.5716
    2ALA     HA   10  15.162  11.887  10.693 -1.9761 -0.5241 -1.6879
    2ALA     CB   11  14.988  11.962  10.613 -0.1387 -0.1905 -0.1120
    2ALA    HB1   12  14.929  11.945  10.703 -2.1406  2.1272 -0.8536
    2ALA    HB2   13  14.954  12.056  10.570 -3.6961 -1.1413  0.3186
    2ALA    HB3   14  14.977  11.867  10.561 -0.2820 -0.7720  0.9494
    2ALA      C   15  15.227  11.981  10.511  1.4234 -0.0962  0.3939
    2ALA      O   16  15.213  12.081  10.437 -0.3470  0.3996  0.5667
    3ALA      N   17  15.302  11.875  10.484 -0.9986 -0.0318 -0.5315
    3ALA      H   18  15.287  11.793  10.541  1.0954  1.4658  2.3565
    3ALA     CA   19  15.408  11.844  10.378 -0.5523 -0.3330  0.1328
    3ALA     HA   20  15.476  11.773  10.425 -0.6083 -0.0583  0.6306
    3ALA     CB   21  15.324  11.783  10.263 -0.2118  0.1479  0.1809
    3ALA    HB1   22  15.253  11.714  10.307  1.6998 -0.4486  2.4948
    3ALA    HB2   23  15.272  11.862  10.209 -0.7981 -0.4037 -0.0800
    3ALA    HB3   24  15.388  11.731  10.192  0.7305  0.7520  0.5633
    3ALA      C   25  15.493  11.966  10.329 -0.6074 -0.6024 -0.3626
    3ALA      O   26  15.529  11.963  10.212 -0.2594 -0.0978  0.2634
    4NME      N   27  15.523  12.064  10.419 -0.5173  0.3062 -0.0222
    4NME      H   28  15.499  12.045  10.515  1.8522  0.1526  0.6188
    4NME    CH3   29  15.605  12.182  10.402 -0.4819 -0.2541  0.6620
    4NME   HH31   30  15.575  12.244  10.317 -0.1801  0.6461  1.1882
    4NME   HH32   31  15.597  12.239  10.494  1.4268 -1.7155  1.8065
    4NME   HH33   32  15.714  12.173  10.394 -0.5261  0.5551 -1.9130
  20.99041  20.99041  20.99041
