Protein
   42
    1ACE   HH31    1  13.536  12.603   9.894 -0.2146 -0.0365  0.4872
    1ACE    CH3    2  13.477  12.621   9.804  0.5385  0.7031  0.1324
    1ACE   HH32    3  13.376  12.654   9.831  0.6533 -0.2385  1.8654
    1ACE   HH33    4  13.477  12.537   9.735  0.4038  1.2930 -0.6036
    1ACE      C    5  13.551  12.725   9.724 -0.1129  0.2860 -1.2090
    1ACE      O    6  13.660  12.750   9.763 -0.3530 -0.2009 -0.5639
    2ALA      N    7  13.490  12.797   9.632 -0.0817 -0.1752 -1.2512
    2ALA      H    8  13.393  12.768   9.636 -0.4733  0.7851 -2.6708
    2ALA     CA    9  13.535  12.929   9.571  0.0099  1.3080  0.0999
    2ALA     HA   10  13.643  12.938   9.557 -0.2065  2.6159 -1.0588
    2ALA     CB   11  13.487  12.944   9.427 -0.3361  0.0034 -0.5025
    2ALA    HB1   12  13.535  13.032   9.383 -0.6948  1.9364  2.5983
    2ALA    HB2   13  13.514  12.851   9.377 -1.7884 -0.4160 -0.5417
    2ALA    HB3   14  13.380  12.963   9.430 -0.1073  1.2251  1.5103
    2ALA      C   15  13.488  13.054   9.655  0.3313  0.8679  1.0017
    2ALA      O   16  13.387  13.044   9.716  0.3178 -0.2177  0.1867
    3ALA      N   17  13.555  13.166   9.665 -0.5328 -0.1110  0.6467
    3ALA      H   18  13.509  13.242   9.713 -2.9390 -0.7904 -0.3924
    3ALA     CA   19  13.692  13.179   9.623 -0.5598  0.1207  0.5269
    3ALA     HA   20  13.704  13.171   9.515 -0.4556  1.2338  0.4374
    3ALA     CB   21  13.714  13.329   9.652 -0.0255  0.6220  0.4073
    3ALA    HB1   22  13.697  13.352   9.758  1.8928 -0.4137  0.9701
    3ALA    HB2   23  13.815  13.347   9.616 -0.0673 -1.9137 -1.2028
    3ALA    HB3   24  13.654  13.396   9.591  1.6809  1.4767 -0.3932
    3ALA      C   25  13.795  13.085   9.687 -0.0507 -0.0172 -0.1755
    3ALA      O   26  13.887  13.052   9.619 -0.6185  0.0227 -0.1423
    4ALA      N   27  13.766  13.050   9.813 -0.6483  0.5664  0.6220
    4ALA      H   28  13.683  13.090   9.855 -0.9328 -1.9808  2.8285
    4ALA     CA   29  13.848  12.949   9.887  0.4370  0.8501 -0.0195
    4ALA     HA   30  13.860  12.863   9.822 -0.6918  0.0612  0.7691
    4ALA     CB   31  13.983  13.015   9.920  0.3274 -0.0676  0.3329
    4ALA    HB1   32  14.048  12.952   9.979  0.5100  0.0763  0.2910
    4ALA    HB2   33  14.041  13.041   9.831  0.2109  0.5315  0.4274
    4ALA    HB3   34  13.974  13.110   9.973  1.6168  0.2199  0.0771
    4ALA      C   35  13.790  12.918  10.025  0.6156  0.2464  0.1253
    4ALA      O   36  13.776  12.997  10.119 -0.0212  0.5304 -0.0831
    5NME      N   37  13.750  12.791  10.037  0.0495  0.5777  0.5572
    5NME      H   38  13.754  12.740   9.949  0.6571  0.8619  0.4059
    5NME    CH3   39  13.682  12.725  10.149 -0.1077  0.3215 -0.4134
    5NME   HH31   40  13.590  12.780  10.172  0.6513  1.0705  0.9999
    5NME   HH32   41  13.658  12.622  10.121 -0.2760  0.4632 -0.7965
    5NME   HH33   42  13.748  12.741  10.234 -1.1352  1.6543  0.1790
  20.91516  20.91516  20.91516
