Title
  129
    1AIB    CAY    1  20.872  19.534  19.924 -0.7052 -0.4032  0.1090
    1AIB    HY1    2  20.814  19.626  19.946 -0.6657 -0.1613 -0.7732
    1AIB    HY2    3  20.867  19.523  19.814  0.1342  0.0642  0.0155
    1AIB    HY3    4  20.979  19.537  19.955 -0.1282 -2.2924 -1.4677
    1AIB     CY    5  20.819  19.410  19.982 -0.5564 -0.0074 -0.3391
    1AIB     OY    6  20.701  19.398  20.014  0.0577 -0.3773  0.1548
    1AIB      N    7  20.913  19.319  20.000  0.2454  0.6449 -0.1032
    1AIB     HN    8  20.994  19.336  19.945  1.0642 -0.4590  0.7239
    1AIB     CA    9  20.913  19.204  20.084  0.6777  1.0801  0.6108
    1AIB    CB1   10  20.962  19.244  20.234  0.4103 -0.0066  0.1341
    1AIB   HB11   11  20.884  19.308  20.281  2.2458  2.2711  0.2706
    1AIB   HB12   12  21.060  19.295  20.226  0.4323 -0.2102 -1.0732
    1AIB   HB13   13  20.978  19.165  20.311 -0.7973 -0.6923 -0.3021
    1AIB    CB2   14  21.030  19.105  20.030  1.0287 -0.3010 -0.3180
    1AIB   HB21   15  21.122  19.165  20.015 -0.2023  1.4906 -0.8990
    1AIB   HB22   16  21.003  19.054  19.935  0.1080 -0.6395  0.1047
    1AIB   HB23   17  21.042  19.021  20.102 -1.7757  0.6659  1.4599
    1AIB      C   18  20.775  19.124  20.082 -0.5955 -0.6465  0.5927
    1AIB      O   19  20.733  19.079  19.972  0.4500  0.1397 -0.3234
    2AIB      N   20  20.716  19.108  20.205  0.1010 -0.0076  0.8715
    2AIB     HN   21  20.761  19.148  20.284  1.1187  0.6269  0.0071
    2AIB     CA   22  20.593  19.031  20.225  0.2230  0.0291 -0.3683
    2AIB    CB1   23  20.518  19.078  20.355  0.1069  0.8851 -0.1848
    2AIB   HB11   24  20.531  19.189  20.350  2.2763  0.6631 -1.3942
    2AIB   HB12   25  20.578  19.031  20.435  1.2653  2.5852  0.0106
    2AIB   HB13   26  20.414  19.041  20.363  0.0552  1.2051  0.6675
    2AIB    CB2   27  20.622  18.874  20.227 -0.5684 -0.5306 -0.1607
    2AIB   HB21   28  20.669  18.853  20.128 -0.5572 -0.0034 -0.2672
    2AIB   HB22   29  20.525  18.821  20.233 -1.3579  0.9106 -0.0212
    2AIB   HB23   30  20.693  18.838  20.305  0.9979  1.3170 -0.6889
    2AIB      C   31  20.479  19.069  20.121  0.1128  0.1023 -0.1067
    2AIB      O   32  20.419  18.990  20.049  0.7739  0.0120 -0.5425
    3AIB      N   33  20.471  19.207  20.104 -0.3164 -0.2633  0.2256
    3AIB     HN   34  20.526  19.260  20.168  2.3615 -0.2401 -1.8927
    3AIB     CA   35  20.368  19.277  20.024  0.7883 -0.7090 -0.2070
    3AIB    CB1   36  20.377  19.426  20.052  0.4692 -0.1226  0.3608
    3AIB   HB11   37  20.385  19.444  20.162 -1.2663  1.5164  0.2505
    3AIB   HB12   38  20.290  19.488  20.021  1.4948  1.5025  0.6084
    3AIB   HB13   39  20.461  19.472  19.995 -1.2107  3.4287  0.4781
    3AIB    CB2   40  20.234  19.230  20.079 -0.0046  0.1080 -0.3143
    3AIB   HB21   41  20.230  19.253  20.188  0.9690  1.2012 -0.4869
    3AIB   HB22   42  20.197  19.131  20.046 -1.1320  0.4270 -0.0508
    3AIB   HB23   43  20.160  19.304  20.044 -1.8404 -0.9803  1.0406
    3AIB      C   44  20.383  19.254  19.874 -0.1045 -0.0519 -0.0932
    3AIB      O   45  20.287  19.229  19.803  0.2860 -0.2864  0.6026
    4AIB      N   46  20.509  19.242  19.829 -0.4495  0.7374  0.4325
    4AIB     HN   47  20.582  19.247  19.897  0.9280 -1.9326 -0.6939
    4AIB     CA   48  20.547  19.225  19.687 -0.8959 -0.5051 -0.1190
    4AIB    CB1   49  20.701  19.230  19.673  0.4417  0.0567 -0.2096
    4AIB   HB11   50  20.724  19.191  19.572  1.8624  0.5627 -0.1174
    4AIB   HB12   51  20.753  19.176  19.755 -0.3266  2.5993  2.0803
    4AIB   HB13   52  20.736  19.335  19.680  1.5510 -0.3337  0.3527
    4AIB    CB2   53  20.488  19.329  19.592  0.7215 -0.3715 -0.7234
    4AIB   HB21   54  20.544  19.328  19.497  1.2856 -1.0877 -0.3818
    4AIB   HB22   55  20.527  19.421  19.639 -0.4043 -0.5644  0.6816
    4AIB   HB23   56  20.377  19.338  19.588  0.5809 -1.1055  0.7081
    4AIB      C   57  20.519  19.080  19.648  0.6387  1.2714  0.3729
    4AIB      O   58  20.483  19.054  19.532  0.4998 -0.1351  0.1537
    5AIB      N   59  20.540  18.982  19.746 -0.0124 -0.0586  0.7557
    5AIB     HN   60  20.574  19.014  19.834  2.6671  1.6626 -0.7453
    5AIB     CA   61  20.517  18.840  19.711  0.2117 -0.1613 -0.2583
    5AIB    CB1   62  20.542  18.755  19.835 -0.0862  0.2828  0.4566
    5AIB   HB11   63  20.514  18.651  19.807 -0.3842  0.4150  0.2537
    5AIB   HB12   64  20.467  18.784  19.912  0.2165 -0.9472  1.2424
    5AIB   HB13   65  20.647  18.774  19.863  0.4459 -1.5055 -0.1888
    5AIB    CB2   66  20.622  18.798  19.605  0.0015  0.0391  0.4263
    5AIB   HB21   67  20.716  18.800  19.663 -0.9337 -1.3370  2.0914
    5AIB   HB22   68  20.626  18.867  19.518  1.4547 -0.6213 -0.0500
    5AIB   HB23   69  20.604  18.695  19.568  0.6431 -0.2478  0.9013
    5AIB      C   70  20.368  18.812  19.671 -0.0718  0.2513 -1.1346
    5AIB      O   71  20.348  18.755  19.568 -1.0143  0.0121  0.4663
    6AIB      N   72  20.272  18.858  19.755  0.0894  0.3397 -0.2379
    6AIB     HN   73  20.290  18.920  19.831 -1.1968 -1.3466  1.5557
    6AIB     CA   74  20.127  18.850  19.734  0.3310  0.2818  0.2951
    6AIB    CB1   75  20.065  18.945  19.836  0.2519 -0.0602 -0.7450
    6AIB   HB11   76  19.955  18.929  19.834  0.1979  0.2087 -0.3543
    6AIB   HB12   77  20.091  19.050  19.813  3.2071 -0.7396 -0.8836
    6AIB   HB13   78  20.108  18.920  19.936  1.3808  3.5017 -0.2031
    6AIB    CB2   79  20.080  18.708  19.755 -0.1878  0.4590 -0.2134
    6AIB   HB21   80  20.111  18.677  19.856  2.7335  0.1163 -1.1442
    6AIB   HB22   81  20.135  18.647  19.680  2.7975 -0.7984  2.7380
    6AIB   HB23   82  19.969  18.698  19.750 -0.1213 -0.6347  0.2552
    6AIB      C   83  20.075  18.904  19.602 -0.2218 -0.3941  0.5642
    6AIB      O   84  19.999  18.849  19.533  0.5354  0.2230  0.7831
    7AIB      N   85  20.128  19.023  19.556 -0.3577 -0.3323  0.2050
    7AIB     HN   86  20.198  19.072  19.608  0.5246 -0.0604 -1.1780
    7AIB     CA   87  20.114  19.075  19.416  0.5897 -0.5652  0.3398
    7AIB    CB1   88  20.196  19.207  19.407 -0.5136 -0.3551 -0.5876
    7AIB   HB11   89  20.154  19.268  19.490 -0.9000 -1.7214  0.2492
    7AIB   HB12   90  20.184  19.263  19.311  0.9380  1.8491  0.4302
    7AIB   HB13   91  20.302  19.182  19.424 -1.0800 -1.6660  1.2505
    7AIB    CB2   92  19.960  19.107  19.385  0.6639  0.6454 -0.0632
    7AIB   HB21   93  19.893  19.023  19.411  1.5754 -0.0791  0.0088
    7AIB   HB22   94  19.947  19.122  19.275 -2.4812  1.0728  0.2907
    7AIB   HB23   95  19.924  19.191  19.447  0.1264  0.0121  0.4994
    7AIB      C   96  20.166  18.970  19.314  0.9768 -0.6726  0.4709
    7AIB      O   97  20.094  18.916  19.230 -0.5241  0.2129 -0.1098
    8AIB      N   98  20.296  18.949  19.302  0.3296  0.8828 -0.0833
    8AIB     HN   99  20.353  18.965  19.382 -0.3621 -1.5000  0.9770
    8AIB     CA  100  20.359  18.863  19.207 -0.0788  0.1338 -0.2033
    8AIB    CB1  101  20.511  18.857  19.246  0.4762  0.2004 -0.4496
    8AIB   HB11  102  20.557  18.813  19.155 -3.4357 -0.0906 -2.5075
    8AIB   HB12  103  20.517  18.810  19.347 -0.1909  0.8854 -0.0830
    8AIB   HB13  104  20.546  18.962  19.257 -1.0113  0.8230 -1.3866
    8AIB    CB2  105  20.353  18.921  19.066  0.3501 -0.2249  0.3539
    8AIB   HB21  106  20.389  19.027  19.064  1.7226 -0.6403 -3.3848
    8AIB   HB22  107  20.251  18.921  19.022  0.4693  0.1797  0.0754
    8AIB   HB23  108  20.415  18.867  18.992 -1.2281 -1.4599 -0.0992
    8AIB      C  109  20.318  18.711  19.196 -0.0998 -0.2939  0.4744
    8AIB      O  110  20.329  18.639  19.092  0.3033 -0.1282 -1.0098
    9AIB      N  111  20.281  18.654  19.308  0.3322  0.1269 -0.2082
    9AIB     HN  112  20.298  18.711  19.389  1.2226  0.6809 -0.7704
    9AIB     CA  113  20.222  18.525  19.314 -0.0465 -0.1995  0.8210
    9AIB    CB1  114  20.172  18.508  19.454  0.3827 -0.5768  0.4483
    9AIB   HB11  115  20.252  18.536  19.526  1.1071 -1.4231 -0.0095
    9AIB   HB12  116  20.145  18.402  19.471 -1.3885 -0.2478 -0.1703
    9AIB   HB13  117  20.084  18.570  19.483  0.9665  0.7674 -0.5883
    9AIB    CB2  118  20.323  18.419  19.289  0.4233  0.5837 -0.1485
    9AIB   HB21  119  20.285  18.315  19.291  2.7212 -0.3532 -1.5304
    9AIB   HB22  120  20.402  18.417  19.367 -1.9126  1.8927  2.4265
    9AIB   HB23  121  20.372  18.438  19.191  0.0044  0.1920 -0.4355
    9AIB      C  122  20.093  18.524  19.229  1.0947  0.3674  0.9272
    9AIB      O  123  20.043  18.415  19.199  0.0689  0.0022  0.2275
    9AIB     NT  124  20.022  18.641  19.217 -0.0156 -0.1138  0.5122
    9AIB    HNT  125  20.066  18.729  19.232  2.8671 -0.9643 -2.0127
    9AIB    CAT  126  19.880  18.647  19.183 -0.8077 -0.8050  0.4134
    9AIB    HT1  127  19.833  18.555  19.142  0.4986 -0.8941 -0.9725
    9AIB    HT2  128  19.867  18.728  19.109  2.0961  0.2147  0.8776
    9AIB    HT3  129  19.811  18.670  19.267  1.4387 -3.0560  3.0570
  42.09246  42.09246  42.09246
