Protein
   42
    1ACE   HH31    1  14.056   9.277  12.597 -0.9626 -1.8245 -0.2196
    1ACE    CH3    2  14.082   9.269  12.491  0.1920 -0.9935 -0.0224
    1ACE   HH32    3  14.044   9.360  12.445  0.6005 -0.2184  1.1127
    1ACE   HH33    4  14.036   9.185  12.438  0.4670  0.0379 -2.0089
    1ACE      C    5  14.231   9.260  12.484 -0.0405  0.4918  0.0787
    1ACE      O    6  14.285   9.150  12.489 -0.1899 -0.4835 -0.1894
    2ALA      N    7  14.299   9.381  12.476 -0.1669  0.4295  0.1515
    2ALA      H    8  14.242   9.464  12.475 -1.0554 -0.1686 -0.5870
    2ALA     CA    9  14.441   9.410  12.506  0.7797  0.2049  0.9617
    2ALA     HA   10  14.492   9.391  12.412 -0.1303  2.2460 -0.0266
    2ALA     CB   11  14.470   9.563  12.533  0.0601  0.2164 -0.1539
    2ALA    HB1   12  14.410   9.601  12.616 -2.9246 -2.8004 -0.6965
    2ALA    HB2   13  14.574   9.572  12.565  0.2541  1.4253 -1.0473
    2ALA    HB3   14  14.447   9.628  12.449 -1.2616 -0.8974 -0.6936
    2ALA      C   15  14.501   9.320  12.616 -0.7956 -0.4074 -0.2917
    2ALA      O   16  14.463   9.337  12.728 -0.1014  0.1661  0.0795
    3ALA      N   17  14.600   9.233  12.597  0.3715  1.3283 -1.0004
    3ALA      H   18  14.608   9.173  12.677 -3.2941  0.8193 -0.8965
    3ALA     CA   19  14.687   9.214  12.483  0.4793 -0.5031  0.0686
    3ALA     HA   20  14.671   9.287  12.403 -0.6123 -3.1563 -2.3392
    3ALA     CB   21  14.832   9.225  12.523  0.3149 -0.0807 -0.1636
    3ALA    HB1   22  14.845   9.319  12.577 -0.3210  0.3504 -0.7302
    3ALA    HB2   23  14.857   9.139  12.584  1.7688  0.7629  0.4752
    3ALA    HB3   24  14.897   9.226  12.436  0.7690  0.8684  0.1694
    3ALA      C   25  14.654   9.081  12.401 -0.8015 -0.3795 -0.2669
    3ALA      O   26  14.673   9.084  12.282 -0.0543  0.4247  0.5660
    4ALA      N   27  14.589   8.984  12.468  0.0506  0.3504  0.3660
    4ALA      H   28  14.547   9.003  12.558 -0.5655  0.1057  0.1390
    4ALA     CA   29  14.566   8.852  12.405  0.1915 -0.0529  0.0890
    4ALA     HA   30  14.555   8.854  12.296  1.0910  0.9294 -0.0063
    4ALA     CB   31  14.697   8.767  12.428 -0.0825 -0.1262  0.3440
    4ALA    HB1   32  14.712   8.750  12.534  0.9604 -1.7470 -0.0197
    4ALA    HB2   33  14.701   8.675  12.369  2.1072 -0.5929  1.1004
    4ALA    HB3   34  14.785   8.826  12.400 -0.6395  1.3410  1.5489
    4ALA      C   35  14.443   8.785  12.463 -0.0139  0.3811  0.9750
    4ALA      O   36  14.439   8.661  12.484 -0.3772 -0.1114  0.1141
    5NME      N   37  14.336   8.867  12.488  0.4508  0.2132  0.6169
    5NME      H   38  14.346   8.964  12.465 -2.2716  0.0579 -1.7839
    5NME    CH3   39  14.210   8.819  12.547  0.1701  0.1336 -0.1361
    5NME   HH31   40  14.229   8.767  12.641 -0.6543  2.0573  1.1816
    5NME   HH32   41  14.147   8.900  12.585  0.0094 -1.0751  2.4586
    5NME   HH33   42  14.164   8.749  12.476  1.4722 -1.7775  0.8232
  20.91516  20.91516  20.91516
