Protein
   42
    1ACE   HH31    1  14.997  11.269  12.728 -4.7742  0.6296 -0.5700
    1ACE    CH3    2  14.991  11.293  12.834 -0.2255 -0.6709  0.1542
    1ACE   HH32    3  15.002  11.398  12.862 -0.2131 -1.1620  2.1395
    1ACE   HH33    4  15.073  11.242  12.885  2.0344  2.0507 -0.5045
    1ACE      C    5  14.851  11.256  12.877  0.2201 -0.0372  0.0681
    1ACE      O    6  14.831  11.152  12.935 -0.4413 -0.0859  0.1718
    2ALA      N    7  14.752  11.337  12.838  0.0427 -0.4196 -0.0573
    2ALA      H    8  14.772  11.416  12.778  0.3294  0.8785  1.6558
    2ALA     CA    9  14.614  11.321  12.879  0.0659 -1.2751  0.0730
    2ALA     HA   10  14.594  11.222  12.920 -1.1338 -0.4965  1.4680
    2ALA     CB   11  14.578  11.413  12.998 -0.4072 -0.3363 -0.2318
    2ALA    HB1   12  14.647  11.391  13.079  0.2720  2.6876  0.1334
    2ALA    HB2   13  14.584  11.517  12.966  0.2926  0.4140  2.1132
    2ALA    HB3   14  14.480  11.391  13.039  0.0206 -0.8023  0.5599
    2ALA      C   15  14.532  11.346  12.752 -0.3773 -0.1905  0.4609
    2ALA      O   16  14.545  11.453  12.691 -0.3447  0.3308  0.0172
    3ALA      N   17  14.441  11.262  12.708 -0.2070 -0.2117  0.1460
    3ALA      H   18  14.393  11.297  12.627  0.5634 -1.1321 -0.7217
    3ALA     CA   19  14.421  11.119  12.745 -1.5383  0.0314  0.3531
    3ALA     HA   20  14.351  11.085  12.669  0.3507 -0.1354 -1.4027
    3ALA     CB   21  14.554  11.038  12.713  0.3994  0.1756  0.2357
    3ALA    HB1   22  14.600  11.072  12.620  2.4235  0.9763  1.4728
    3ALA    HB2   23  14.626  11.030  12.794  0.2157 -1.8887  0.2435
    3ALA    HB3   24  14.528  10.934  12.693 -1.6639  0.0067  3.2047
    3ALA      C   25  14.342  11.090  12.871  0.0389 -0.4829  0.5410
    3ALA      O   26  14.356  10.981  12.922  0.2727  1.0758 -0.7352
    4ALA      N   27  14.269  11.194  12.924  0.1802  0.0262 -0.3071
    4ALA      H   28  14.287  11.286  12.887  1.1452  0.3869  0.9707
    4ALA     CA   29  14.175  11.190  13.037  0.8462 -0.4222  0.0528
    4ALA     HA   30  14.089  11.248  13.005  1.0838  0.3907  0.8418
    4ALA     CB   31  14.116  11.053  13.063 -0.8531  0.1381  0.3697
    4ALA    HB1   32  14.051  11.026  12.980 -2.0741  2.0315  0.6417
    4ALA    HB2   33  14.186  10.978  13.099 -0.0216 -0.4690 -2.3412
    4ALA    HB3   34  14.047  11.050  13.147 -0.3070 -0.2000  0.8084
    4ALA      C   35  14.216  11.263  13.166 -0.0225 -0.5366  0.3741
    4ALA      O   36  14.140  11.346  13.218  0.3695  0.8551  0.3697
    5NME      N   37  14.329  11.224  13.226  0.5985 -0.5276  0.2989
    5NME      H   38  14.374  11.144  13.185  0.2568  0.2900 -1.7879
    5NME    CH3   39  14.376  11.273  13.348  0.4505 -0.1928 -0.2725
    5NME   HH31   40  14.292  11.291  13.416 -0.5347 -0.4189 -1.3791
    5NME   HH32   41  14.454  11.207  13.386 -0.6610 -1.6624 -0.4903
    5NME   HH33   42  14.413  11.370  13.314  0.3569  0.5462  1.5808
  20.91516  20.91516  20.91516
