Protein
   42
    1ACE   HH31    1   6.633  10.380   7.213  1.3224  1.6109 -0.8749
    1ACE    CH3    2   6.633  10.424   7.312  0.8425 -0.2964  0.0193
    1ACE   HH32    3   6.737  10.440   7.344  0.3817 -0.7769  1.9131
    1ACE   HH33    4   6.585  10.360   7.386 -1.1683 -1.3217 -2.1088
    1ACE      C    5   6.560  10.556   7.306  0.3920  0.0462 -0.1539
    1ACE      O    6   6.625  10.654   7.317 -0.0597 -0.5708 -0.3195
    2ALA      N    7   6.428  10.550   7.304  0.1769  0.0650  0.5799
    2ALA      H    8   6.385  10.460   7.318 -0.3331 -0.1034 -1.6121
    2ALA     CA    9   6.333  10.655   7.315  0.5759 -0.3545 -0.7190
    2ALA     HA   10   6.367  10.727   7.390 -1.3076 -0.7706  0.6217
    2ALA     CB   11   6.326  10.731   7.174  0.1182  0.7645  0.4304
    2ALA    HB1   12   6.268  10.668   7.107 -0.9458  2.5831 -0.4515
    2ALA    HB2   13   6.286  10.833   7.178 -0.2979  0.5969  0.6997
    2ALA    HB3   14   6.430  10.738   7.143  0.1723 -0.3958  0.3009
    2ALA      C   15   6.195  10.597   7.361 -0.4544 -0.0569 -0.4233
    2ALA      O   16   6.162  10.483   7.329 -0.0290  0.0272 -0.1297
    3ALA      N   17   6.114  10.659   7.450 -0.5570 -0.4812  0.5631
    3ALA      H   18   6.022  10.618   7.462 -0.5836 -1.2012 -1.7968
    3ALA     CA   19   6.149  10.786   7.514  0.6282  0.2346  0.0959
    3ALA     HA   20   6.199  10.837   7.432  1.0710  0.6733  0.6266
    3ALA     CB   21   6.009  10.850   7.546  0.1419  0.3991 -0.4363
    3ALA    HB1   22   5.946  10.845   7.457 -1.6753 -1.7826  0.8750
    3ALA    HB2   23   5.958  10.798   7.626  0.9822  2.0032  1.2096
    3ALA    HB3   24   6.032  10.948   7.587  0.0988 -0.4702  1.7816
    3ALA      C   25   6.239  10.779   7.636 -1.1553 -0.2617 -0.0533
    3ALA      O   26   6.308  10.876   7.670  0.1502  0.1719 -0.1075
    4ALA      N   27   6.230  10.666   7.697  0.4172 -0.6271 -0.0778
    4ALA      H   28   6.165  10.600   7.656 -0.5838 -0.5094  1.2221
    4ALA     CA   29   6.309  10.615   7.811  0.0435 -0.6343  0.1554
    4ALA     HA   30   6.240  10.600   7.894  0.6214 -1.6063  0.4861
    4ALA     CB   31   6.354  10.467   7.779  0.1528  0.1956 -0.2014
    4ALA    HB1   32   6.425  10.464   7.696 -0.3862 -0.5286 -0.6534
    4ALA    HB2   33   6.394  10.422   7.870 -0.6992  2.2709  1.2886
    4ALA    HB3   34   6.269  10.414   7.734 -0.0704 -0.2912  0.7688
    4ALA      C   35   6.430  10.691   7.869 -0.2990 -0.1447  0.2556
    4ALA      O   36   6.444  10.694   7.988  0.2567 -0.3113 -0.1095
    5NME      N   37   6.530  10.726   7.787  0.2210  0.0166  0.4433
    5NME      H   38   6.516  10.712   7.688  0.9723 -3.7745  0.7258
    5NME    CH3   39   6.643  10.810   7.824  0.6557 -0.2040  0.0689
    5NME   HH31   40   6.668  10.884   7.748  0.0929  1.3985  1.3674
    5NME   HH32   41   6.608  10.880   7.900 -1.2786 -0.9409 -0.0733
    5NME   HH33   42   6.728  10.757   7.866  1.1447 -0.2740 -0.9851
  20.91516  20.91516  20.91516
