Protein
   42
    1ACE   HH31    1   8.871  12.000  14.703 -1.8264  2.6653  2.5683
    1ACE    CH3    2   8.877  11.939  14.793  0.4404 -0.5226  0.4689
    1ACE   HH32    3   8.781  11.887  14.790  0.4743 -0.5539 -1.7738
    1ACE   HH33    4   8.886  12.013  14.872  0.7196  0.2914 -0.3044
    1ACE      C    5   8.989  11.840  14.780 -0.8018 -0.7014  0.4410
    1ACE      O    6   8.970  11.724  14.811 -0.3109 -0.1119 -0.4297
    2ALA      N    7   9.102  11.903  14.746 -0.1264  0.1456 -0.3763
    2ALA      H    8   9.101  12.004  14.749  0.2053  0.1937 -1.3878
    2ALA     CA    9   9.224  11.840  14.696 -0.5471  0.7081  0.2490
    2ALA     HA   10   9.301  11.913  14.669  1.4574 -1.1063  0.7652
    2ALA     CB   11   9.292  11.762  14.810 -0.4189  0.0222 -0.3273
    2ALA    HB1   12   9.334  11.828  14.886  1.0450 -0.9124 -0.2802
    2ALA    HB2   13   9.214  11.698  14.852 -1.6517  0.0105 -2.4899
    2ALA    HB3   14   9.373  11.696  14.780 -0.1981 -0.4697  1.2483
    2ALA      C   15   9.212  11.765  14.562  0.3483  0.2785  0.6998
    2ALA      O   16   9.255  11.820  14.460  0.1916  0.2389  0.0743
    3ALA      N   17   9.150  11.644  14.562  0.0391 -0.1678  0.1213
    3ALA      H   18   9.131  11.603  14.652  0.8254 -1.4860 -0.2927
    3ALA     CA   19   9.086  11.562  14.453  0.3704 -0.0892 -0.1932
    3ALA     HA   20   8.997  11.519  14.499  1.2495 -1.3693  0.3213
    3ALA     CB   21   9.019  11.655  14.341  0.1052 -0.2033  0.3836
    3ALA    HB1   22   8.949  11.726  14.386 -0.4115  0.8042 -1.8687
    3ALA    HB2   23   9.092  11.698  14.272 -1.3260 -0.2412 -1.2115
    3ALA    HB3   24   8.957  11.597  14.272 -0.1640 -0.5842  0.9407
    3ALA      C   25   9.174  11.447  14.412  0.3610 -0.4938 -0.2504
    3ALA      O   26   9.142  11.338  14.451 -0.1530 -0.4925  0.1820
    4ALA      N   27   9.281  11.474  14.344 -0.3878  0.2374 -0.2706
    4ALA      H   28   9.298  11.572  14.329 -1.2413  0.5608  0.7292
    4ALA     CA   29   9.366  11.378  14.283  0.7410  0.1603  0.0996
    4ALA     HA   30   9.294  11.304  14.249  1.6783 -0.4201 -0.6826
    4ALA     CB   31   9.428  11.446  14.158 -0.4189  0.1252  0.1603
    4ALA    HB1   32   9.474  11.365  14.100 -4.1931  0.0710 -3.2259
    4ALA    HB2   33   9.342  11.472  14.096 -1.5275  0.1130  1.6390
    4ALA    HB3   34   9.488  11.535  14.176 -1.0610  0.7729 -0.7971
    4ALA      C   35   9.458  11.298  14.380 -0.2687  0.0097  0.3318
    4ALA      O   36   9.553  11.241  14.333 -0.0400  0.2827  1.0434
    5NME      N   37   9.418  11.279  14.509  0.0245  0.6109  0.2608
    5NME      H   38   9.332  11.319  14.542 -0.8783  0.3340 -1.6143
    5NME    CH3   39   9.497  11.207  14.606 -0.2102  0.2141 -0.3467
    5NME   HH31   40   9.602  11.203  14.576 -0.2263 -0.3272 -0.3364
    5NME   HH32   41   9.488  11.252  14.705 -1.4570 -0.9485  0.0888
    5NME   HH33   42   9.457  11.107  14.618 -1.1505  0.7659  1.3530
  20.91516  20.91516  20.91516
