Protein
   32
    1ACE   HH31    1   7.071  11.790  13.867  0.8672  0.7800  0.8798
    1ACE    CH3    2   7.083  11.694  13.917 -0.1419  0.1427 -0.0502
    1ACE   HH32    3   7.111  11.701  14.022  0.8551 -0.0823 -0.2925
    1ACE   HH33    4   7.165  11.631  13.881  1.4657  0.8460  2.1684
    1ACE      C    5   6.960  11.616  13.904 -0.0381  0.3952  0.2024
    1ACE      O    6   6.963  11.510  13.845 -0.7589 -0.0965  0.0699
    2ALA      N    7   6.863  11.677  13.961  1.0327 -0.3438  0.9434
    2ALA      H    8   6.893  11.763  14.003  1.6321 -0.1376  0.1313
    2ALA     CA    9   6.729  11.620  13.990 -0.0744 -0.3529  0.1735
    2ALA     HA   10   6.702  11.543  13.917 -0.4392 -0.4167  0.3654
    2ALA     CB   11   6.728  11.540  14.128 -1.0376  0.0365 -0.6260
    2ALA    HB1   12   6.630  11.506  14.162 -1.0043  1.7396  1.3963
    2ALA    HB2   13   6.780  11.444  14.118  1.0377  1.1326 -0.9928
    2ALA    HB3   14   6.784  11.591  14.207 -1.8231  2.6289 -1.6693
    2ALA      C   15   6.618  11.723  13.975  0.0121 -0.0593 -0.8517
    2ALA      O   16   6.540  11.713  13.880  0.2110  0.5406 -0.2991
    3ALA      N   17   6.606  11.807  14.073 -0.8203 -0.4718 -0.2509
    3ALA      H   18   6.677  11.809  14.145  0.8541 -3.7111 -1.5923
    3ALA     CA   19   6.501  11.905  14.082  0.7390 -0.4683  0.4665
    3ALA     HA   20   6.456  11.923  13.984  1.3503 -0.2505  0.2285
    3ALA     CB   21   6.396  11.845  14.180 -0.0096 -0.5324 -0.2878
    3ALA    HB1   22   6.388  11.738  14.159  2.1823 -0.8470  0.2503
    3ALA    HB2   23   6.443  11.856  14.278  0.9676  1.1731 -0.9067
    3ALA    HB3   24   6.306  11.905  14.171  0.0331 -0.3477  0.4218
    3ALA      C   25   6.533  12.052  14.137  0.4520  0.2368 -0.2670
    3ALA      O   26   6.650  12.079  14.171 -0.2961  0.0314  0.3232
    4NME      N   27   6.436  12.138  14.158  0.4375  0.7168 -0.1712
    4NME      H   28   6.347  12.104  14.124 -0.7109  2.2271  1.1470
    4NME    CH3   29   6.431  12.266  14.220 -0.1372 -0.1559 -0.6382
    4NME   HH31   30   6.524  12.322  14.214 -0.7936  0.8384 -2.7430
    4NME   HH32   31   6.372  12.332  14.156 -1.6815 -0.0828  0.7934
    4NME   HH33   32   6.397  12.269  14.323  0.2370 -1.3702 -0.4711
  20.99041  20.99041  20.99041
