Protein
   32
    1ACE   HH31    1   6.886  10.006   7.250  2.3701  1.7212  1.1145
    1ACE    CH3    2   6.894   9.942   7.338  0.2495 -0.1885  0.0409
    1ACE   HH32    3   6.854   9.842   7.321 -2.3769  0.9432 -0.8390
    1ACE   HH33    4   6.846   9.986   7.425  0.2093 -1.2774  0.5795
    1ACE      C    5   7.042   9.925   7.380 -0.1022 -0.0665 -0.3249
    1ACE      O    6   7.129   9.974   7.312 -0.0902 -0.2616  0.3003
    2ALA      N    7   7.065   9.858   7.492  0.3620  0.1126  0.2812
    2ALA      H    8   6.982   9.833   7.544 -0.7064  1.9579 -0.4696
    2ALA     CA    9   7.195   9.839   7.554 -0.5362  0.0374 -0.6447
    2ALA     HA   10   7.268   9.890   7.491  2.7201 -0.8008  2.1056
    2ALA     CB   11   7.195   9.898   7.697  0.0450  0.2167  0.1836
    2ALA    HB1   12   7.299   9.907   7.729 -0.2239  1.9591  0.6806
    2ALA    HB2   13   7.152   9.999   7.702  3.7909  1.9199  2.0377
    2ALA    HB3   14   7.143   9.828   7.762 -0.5839 -0.2902 -0.8354
    2ALA      C   15   7.218   9.688   7.540 -0.0325 -0.4084  0.1757
    2ALA      O   16   7.170   9.603   7.616 -0.7710 -0.2459 -0.2112
    3ALA      N   17   7.295   9.654   7.438 -0.2160 -0.1183 -0.1625
    3ALA      H   18   7.336   9.733   7.390 -0.4931  1.3620  1.9144
    3ALA     CA   19   7.320   9.515   7.388  0.1279  0.1396 -0.0684
    3ALA     HA   20   7.284   9.446   7.465  1.0355  0.5480  0.7302
    3ALA     CB   21   7.235   9.489   7.263  0.0840  0.6860 -0.7997
    3ALA    HB1   22   7.250   9.390   7.219  2.8302  1.3917 -1.6392
    3ALA    HB2   23   7.127   9.500   7.279  0.4022  0.8468  1.3505
    3ALA    HB3   24   7.270   9.556   7.184  3.8702  0.0976  0.1799
    3ALA      C   25   7.469   9.493   7.355 -0.0632  0.1752  0.2362
    3ALA      O   26   7.540   9.587   7.327 -0.1341  0.0316 -0.5799
    4NME      N   27   7.514   9.367   7.362 -0.5820 -0.0758 -0.1766
    4NME      H   28   7.455   9.295   7.403  0.2672  0.3886  2.0045
    4NME    CH3   29   7.640   9.322   7.307  0.6526  0.0713  0.3256
    4NME   HH31   30   7.655   9.227   7.358  0.1836  0.8381  1.9403
    4NME   HH32   31   7.631   9.299   7.201 -0.6530  0.7449  0.2768
    4NME   HH33   32   7.722   9.388   7.335  0.3990  1.1458 -1.3375
  20.99041  20.99041  20.99041
