Protein
   42
    1ACE   HH31    1  14.518  14.250   8.456 -0.5378  1.5435  1.0410
    1ACE    CH3    2  14.484  14.315   8.375 -0.6766  0.4340  0.1860
    1ACE   HH32    3  14.559  14.328   8.297  0.1519 -0.5190  0.8009
    1ACE   HH33    4  14.457  14.417   8.403  1.5055  1.4801 -1.2475
    1ACE      C    5  14.362  14.247   8.318  0.0064  0.1808  0.2783
    1ACE      O    6  14.255  14.296   8.351 -0.0034 -0.3325 -0.7031
    2ALA      N    7  14.377  14.136   8.252  0.1852 -0.0535  0.1243
    2ALA      H    8  14.468  14.093   8.236 -0.8031 -1.9490 -0.8941
    2ALA     CA    9  14.267  14.053   8.220 -0.1232  0.4294  0.0844
    2ALA     HA   10  14.176  14.113   8.224 -0.2936  0.1219  1.6770
    2ALA     CB   11  14.281  13.995   8.086  0.0463  0.6855  0.0868
    2ALA    HB1   12  14.279  14.067   8.005 -1.7704 -0.8652 -1.3441
    2ALA    HB2   13  14.372  13.936   8.098 -0.9465 -0.5547  2.0983
    2ALA    HB3   14  14.201  13.926   8.060  0.7576 -1.1010  2.2672
    2ALA      C   15  14.255  13.944   8.331 -0.1431 -0.6382 -0.1285
    2ALA      O   16  14.365  13.904   8.370  0.2449  0.8039 -0.0312
    3ALA      N   17  14.141  13.905   8.394  0.1857 -0.0640  0.4323
    3ALA      H   18  14.149  13.842   8.472 -0.3191  0.1947  0.7004
    3ALA     CA   19  14.002  13.916   8.359 -0.0955  0.3628  0.3904
    3ALA     HA   20  13.966  14.018   8.375  0.7636  0.6981  0.2419
    3ALA     CB   21  13.988  13.878   8.209  0.5723 -0.4329  0.1532
    3ALA    HB1   22  13.890  13.832   8.197 -0.2899  1.4813 -0.5282
    3ALA    HB2   23  13.999  13.968   8.149  1.9055  1.1422  2.5757
    3ALA    HB3   24  14.053  13.795   8.180  0.5506 -0.8548  1.2503
    3ALA      C   25  13.931  13.812   8.442  0.6191  0.6011 -0.3560
    3ALA      O   26  13.987  13.714   8.499  0.0412  0.0720 -0.7338
    4ALA      N   27  13.796  13.820   8.450 -0.0250  0.3342  0.2613
    4ALA      H   28  13.747  13.872   8.377 -1.3039  1.6000  1.9257
    4ALA     CA   29  13.711  13.747   8.546  0.1525  0.9787 -0.3825
    4ALA     HA   30  13.765  13.676   8.608  1.5260  2.3808  0.1297
    4ALA     CB   31  13.646  13.851   8.648 -0.1074  0.3031 -0.7510
    4ALA    HB1   32  13.718  13.890   8.720 -0.8359  0.7090 -0.2230
    4ALA    HB2   33  13.586  13.924   8.594 -2.0013  0.6160  1.6107
    4ALA    HB3   34  13.577  13.802   8.716  0.7272  0.5974  0.3366
    4ALA      C   35  13.597  13.666   8.472  0.2889  0.4432 -0.0333
    4ALA      O   36  13.533  13.722   8.384  0.4170 -0.6964  0.1881
    5NME      N   37  13.565  13.539   8.503  0.3336  0.5297 -0.1724
    5NME      H   38  13.630  13.479   8.550  1.0949  1.2676 -0.2853
    5NME    CH3   39  13.436  13.483   8.457 -0.3777  0.0571 -0.1472
    5NME   HH31   40  13.425  13.488   8.349 -2.1641 -2.0281 -0.1296
    5NME   HH32   41  13.417  13.384   8.499 -0.5832 -0.0221 -0.4138
    5NME   HH33   42  13.357  13.549   8.493  0.1342  2.2300 -2.6943
  20.91516  20.91516  20.91516
