Protein
   42
    1ACE   HH31    1  10.125  18.615   8.643 -0.0778 -3.2477  3.0658
    1ACE    CH3    2  10.021  18.594   8.620 -0.6020  1.2149  0.1861
    1ACE   HH32    3  10.026  18.516   8.544  0.2800 -0.7632  2.1518
    1ACE   HH33    4   9.977  18.687   8.583 -1.0353  0.8518 -0.2293
    1ACE      C    5   9.942  18.552   8.734  0.5679  0.2544  0.1102
    1ACE      O    6  10.000  18.510   8.834 -0.0397 -0.1516  0.5228
    2ALA      N    7   9.808  18.557   8.724 -0.0802 -0.3980 -0.1678
    2ALA      H    8   9.768  18.607   8.646 -0.1626  2.2060  1.4346
    2ALA     CA    9   9.722  18.479   8.810 -0.3606  0.3599  0.6318
    2ALA     HA   10   9.748  18.503   8.913 -0.6678 -3.6831  1.8577
    2ALA     CB   11   9.582  18.525   8.782  0.4948  0.1464  0.2557
    2ALA    HB1   12   9.567  18.632   8.798 -1.7202  0.3873 -2.6585
    2ALA    HB2   13   9.548  18.497   8.683 -0.0598  0.3650  0.3839
    2ALA    HB3   14   9.515  18.483   8.858  1.5615  0.4302  1.4019
    2ALA      C   15   9.739  18.324   8.789 -0.6209 -0.2659 -0.2266
    2ALA      O   16   9.688  18.243   8.870 -0.1386 -0.6003 -0.2069
    3ALA      N   17   9.803  18.282   8.679 -0.4556 -0.0042 -0.9978
    3ALA      H   18   9.848  18.349   8.618  1.5653 -0.8409 -0.5156
    3ALA     CA   19   9.845  18.145   8.646  0.3285  0.1944 -0.3632
    3ALA     HA   20   9.763  18.080   8.617  1.4382 -0.7080 -1.5875
    3ALA     CB   21   9.930  18.159   8.518 -0.2478 -0.2214  0.1879
    3ALA    HB1   22   9.972  18.067   8.477  1.1611  0.4025  0.1475
    3ALA    HB2   23   9.871  18.211   8.443 -1.6580 -1.6822  0.2277
    3ALA    HB3   24  10.015  18.226   8.528  0.8641 -1.4620 -0.4839
    3ALA      C   25   9.935  18.078   8.755 -0.1524  0.1744 -0.6192
    3ALA      O   26  10.053  18.048   8.734 -0.4495  0.0193 -0.6795
    4ALA      N   27   9.884  18.058   8.879 -0.1719 -0.6480  0.4188
    4ALA      H   28   9.797  18.103   8.906  0.5397  0.9378  0.2014
    4ALA     CA   29   9.965  18.017   8.991  0.0817 -0.4284  0.2552
    4ALA     HA   30  10.057  17.974   8.955 -0.3259 -1.2469  0.1842
    4ALA     CB   31  10.003  18.146   9.066 -0.4655 -0.0566  0.3885
    4ALA    HB1   32  10.067  18.204   9.001  0.2232 -0.1568  0.9657
    4ALA    HB2   33   9.911  18.199   9.091 -0.4014  0.2491 -0.0200
    4ALA    HB3   34  10.068  18.114   9.147  2.0429 -0.7046 -1.7568
    4ALA      C   35   9.895  17.923   9.089 -0.0984 -0.2343  0.0439
    4ALA      O   36   9.962  17.880   9.183  0.2505 -0.4971  0.2745
    5NME      N   37   9.774  17.869   9.070 -0.2661  0.3714  0.1435
    5NME      H   38   9.728  17.903   8.987 -0.9678 -0.3591  0.2229
    5NME    CH3   39   9.694  17.801   9.167 -0.0051  0.4219  0.4354
    5NME   HH31   40   9.742  17.811   9.264  2.3003 -0.8613 -0.4847
    5NME   HH32   41   9.592  17.838   9.172 -0.0697  0.3708 -0.3620
    5NME   HH33   42   9.691  17.693   9.148  1.7625  0.6032 -1.1306
  20.91516  20.91516  20.91516
