Protein
   32
    1ACE   HH31    1   9.622  15.993   8.699  1.0511 -1.4960 -0.5297
    1ACE    CH3    2   9.627  15.999   8.590  0.0377  0.2507 -0.5207
    1ACE   HH32    3   9.713  16.056   8.556 -0.4843  1.6502  0.3414
    1ACE   HH33    4   9.533  16.043   8.555  0.3843  0.2485 -1.4724
    1ACE      C    5   9.635  15.851   8.546 -0.0138 -0.3626 -1.1428
    1ACE      O    6   9.690  15.815   8.440 -0.2090 -0.9691  0.2180
    2ALA      N    7   9.580  15.768   8.630  0.4819  0.2044  0.5779
    2ALA      H    8   9.534  15.801   8.714  1.5000  1.1792  0.7650
    2ALA     CA    9   9.597  15.622   8.621 -0.2506 -1.2155 -0.1312
    2ALA     HA   10   9.679  15.596   8.554 -0.5042 -0.1003 -0.8916
    2ALA     CB   11   9.631  15.562   8.761 -0.2463 -0.2625 -0.0394
    2ALA    HB1   12   9.719  15.613   8.801 -0.1803  1.2231 -1.8623
    2ALA    HB2   13   9.548  15.558   8.831 -0.1755 -0.6210  0.0226
    2ALA    HB3   14   9.655  15.461   8.729 -1.3764 -0.9250  1.1655
    2ALA      C   15   9.463  15.571   8.565  0.7515 -0.1825  0.2938
    2ALA      O   16   9.391  15.504   8.636  0.0634 -0.2491  0.4747
    3ALA      N   17   9.441  15.595   8.435  0.1132  0.4880  0.3947
    3ALA      H   18   9.512  15.645   8.384  3.0219 -3.1922  0.3825
    3ALA     CA   19   9.303  15.578   8.378  0.7153  0.3729 -0.1810
    3ALA     HA   20   9.237  15.600   8.462  2.6328  0.7090  1.3114
    3ALA     CB   21   9.276  15.692   8.276 -0.0678  0.3594  0.1679
    3ALA    HB1   22   9.184  15.677   8.220  1.1052  1.3066 -2.1443
    3ALA    HB2   23   9.262  15.783   8.333  0.3827  1.0669 -0.8317
    3ALA    HB3   24   9.359  15.695   8.206 -0.8941  1.0905 -0.7959
    3ALA      C   25   9.289  15.430   8.328  0.0881  0.3798  0.1764
    3ALA      O   26   9.283  15.407   8.211 -0.1645  0.1223 -0.4057
    4NME      N   27   9.280  15.336   8.423  0.0436 -0.5211 -0.0073
    4NME      H   28   9.296  15.370   8.517 -1.3816  0.9570 -0.2512
    4NME    CH3   29   9.286  15.190   8.396  0.8062  0.4551 -1.0345
    4NME   HH31   30   9.385  15.160   8.360  1.3609 -0.6782  1.2239
    4NME   HH32   31   9.265  15.136   8.488  0.5804  0.3331 -1.1556
    4NME   HH33   32   9.214  15.165   8.319  0.5561 -0.7507 -0.4386
  20.99041  20.99041  20.99041
