Protein
   22
    1ACE   HH31    1   9.600   3.437   3.153  0.2112  2.0111 -1.4391
    1ACE    CH3    2   9.638   3.356   3.090 -0.6744  0.2788  0.1825
    1ACE   HH32    3   9.640   3.383   2.985  0.1117 -0.0449  0.1075
    1ACE   HH33    4   9.580   3.265   3.106 -0.7659  0.6017  1.9096
    1ACE      C    5   9.781   3.337   3.136 -0.6580 -0.0991 -0.5000
    1ACE      O    6   9.820   3.401   3.233  0.3334  0.0855 -0.4804
    2ALA      N    7   9.864   3.263   3.059  0.0249  0.0222  0.3159
    2ALA      H    8   9.829   3.230   2.971 -0.3500 -0.1646  0.5308
    2ALA     CA    9   9.988   3.202   3.107  0.3851 -0.3230  0.2283
    2ALA     HA   10  10.026   3.271   3.183  0.6138 -0.2639  0.0654
    2ALA     CB   11   9.953   3.067   3.170 -0.5371  0.0044 -0.3536
    2ALA    HB1   12   9.903   3.002   3.099  1.7822 -1.0095 -1.1749
    2ALA    HB2   13  10.048   3.023   3.203 -1.3983 -0.6292  1.4077
    2ALA    HB3   14   9.877   3.079   3.247  0.0726  0.8956  0.1258
    2ALA      C   15  10.092   3.177   3.001  0.3139 -0.0451  0.3503
    2ALA      O   16  10.066   3.159   2.881  0.3731  0.4535  0.1693
    3NME      N   17  10.217   3.197   3.034 -0.2346  0.0406 -0.2138
    3NME      H   18  10.225   3.237   3.127 -0.5940  2.4632 -1.1334
    3NME    CH3   19  10.334   3.187   2.949  0.8403 -0.3446 -0.1520
    3NME   HH31   20  10.307   3.243   2.859 -1.5963  1.3136  1.5032
    3NME   HH32   21  10.419   3.236   2.998 -0.6213  2.5711 -0.3264
    3NME   HH33   22  10.347   3.082   2.925  0.1780 -0.2805 -0.7900
  10.72160  10.72160  10.72160
