Protein
   42
    1ACE   HH31    1  12.696  12.780  11.142 -0.9466  0.1739  0.1691
    1ACE    CH3    2  12.674  12.674  11.128 -0.0733 -0.0136  0.1095
    1ACE   HH32    3  12.662  12.647  11.023  1.5642 -1.1491  0.1735
    1ACE   HH33    4  12.589  12.632  11.182  0.9382 -0.6324  1.2328
    1ACE      C    5  12.797  12.601  11.167  0.1106  0.6796  0.6877
    1ACE      O    6  12.870  12.557  11.075  0.1995  0.0352 -0.4166
    2ALA      N    7  12.816  12.574  11.296  0.9607 -0.0091  0.4345
    2ALA      H    8  12.740  12.600  11.357 -1.3607 -0.6714 -2.0181
    2ALA     CA    9  12.935  12.499  11.344  0.1382 -0.6272 -0.7356
    2ALA     HA   10  13.019  12.536  11.285  2.0987  0.3247  2.3613
    2ALA     CB   11  12.962  12.549  11.484  0.0358  0.6196 -0.3310
    2ALA    HB1   12  12.879  12.524  11.550 -0.3106  3.6381  0.5372
    2ALA    HB2   13  13.046  12.498  11.531  0.0903 -0.3620 -1.4556
    2ALA    HB3   14  12.983  12.656  11.483  0.2183  0.6291  1.5017
    2ALA      C   15  12.918  12.349  11.323  0.4410 -0.0215 -0.0451
    2ALA      O   16  12.861  12.275  11.409 -0.1980  0.2891 -0.3726
    3ALA      N   17  12.975  12.300  11.214  0.3769 -0.0609 -0.4331
    3ALA      H   18  12.996  12.372  11.147  0.6932 -0.3313 -0.6308
    3ALA     CA   19  12.987  12.159  11.178  0.1427 -0.0630 -0.3525
    3ALA     HA   20  13.041  12.160  11.083  0.1849  0.4731 -0.3256
    3ALA     CB   21  13.077  12.084  11.282  0.0842  0.4424 -0.4465
    3ALA    HB1   22  13.180  12.115  11.263 -0.5823  1.3520 -2.8710
    3ALA    HB2   23  13.060  12.114  11.386 -0.1575 -2.1506  0.3478
    3ALA    HB3   24  13.082  11.976  11.270  1.8342  0.6864 -2.2999
    3ALA      C   25  12.856  12.087  11.143  0.8848  0.7886  1.1176
    3ALA      O   26  12.834  12.054  11.024  0.5016  0.4472  0.1842
    4ALA      N   27  12.771  12.067  11.241 -0.1584  0.1038 -0.2734
    4ALA      H   28  12.805  12.091  11.333  1.0528 -1.0419 -0.3959
    4ALA     CA   29  12.633  12.019  11.232 -0.6242  0.2928  0.9563
    4ALA     HA   30  12.616  11.966  11.138 -0.6876  1.5101  0.2535
    4ALA     CB   31  12.618  11.935  11.363  0.0094  0.6514  0.1620
    4ALA    HB1   32  12.522  11.885  11.365 -0.0742  0.8132  0.2948
    4ALA    HB2   33  12.701  11.865  11.378 -0.5318 -0.2909 -1.1350
    4ALA    HB3   34  12.631  12.014  11.438  1.3670  0.2656  0.3610
    4ALA      C   35  12.524  12.125  11.228 -0.1948 -0.0816  0.0768
    4ALA      O   36  12.412  12.098  11.180 -0.5606  0.1952  0.0442
    5NME      N   37  12.552  12.244  11.281 -0.6185  0.1627  0.4608
    5NME      H   38  12.643  12.259  11.324  0.9015 -1.8050 -1.7614
    5NME    CH3   39  12.466  12.361  11.277  0.3251  0.3919 -0.1708
    5NME   HH31   40  12.496  12.430  11.199  1.6883  0.5508  0.4504
    5NME   HH32   41  12.362  12.328  11.279 -0.1756  1.6318 -2.4409
    5NME   HH33   42  12.467  12.402  11.378 -0.4814 -1.3141  0.5751
  20.91516  20.91516  20.91516
