Protein
   42
    1ACE   HH31    1  15.663  13.401   6.350  0.8535 -0.5130  0.9343
    1ACE    CH3    2  15.703  13.438   6.256 -1.1140  0.3539  0.4153
    1ACE   HH32    3  15.627  13.495   6.200 -1.3746 -2.6034 -2.5826
    1ACE   HH33    4  15.725  13.351   6.194 -3.2044  0.4123 -0.5293
    1ACE      C    5  15.822  13.530   6.276 -0.3255  0.2135 -0.4626
    1ACE      O    6  15.924  13.521   6.214  0.3906 -0.0238  0.1657
    2ALA      N    7  15.799  13.613   6.377 -0.3570 -0.4078 -0.1779
    2ALA      H    8  15.707  13.603   6.418 -1.3210  0.4449 -2.0204
    2ALA     CA    9  15.903  13.692   6.447  0.0943  0.6420  0.3554
    2ALA     HA   10  15.843  13.767   6.499  0.1885  0.4701  0.7233
    2ALA     CB   11  15.966  13.593   6.547  0.6135  0.2042  0.7478
    2ALA    HB1   12  16.013  13.506   6.501  0.9162 -0.0228  1.4691
    2ALA    HB2   13  16.049  13.643   6.597  0.2501  0.2024  1.3500
    2ALA    HB3   14  15.890  13.561   6.618 -1.1078  2.1353 -0.1198
    2ALA      C   15  16.002  13.778   6.366 -0.2763 -0.7305 -0.0884
    2ALA      O   16  16.114  13.804   6.409 -0.5351 -0.3618  0.0842
    3ALA      N   17  15.961  13.837   6.251  0.3904 -0.0338 -0.4872
    3ALA      H   18  16.035  13.888   6.204 -0.5521 -0.5804 -2.7167
    3ALA     CA   19  15.828  13.864   6.200 -0.3580  0.0938 -0.4004
    3ALA     HA   20  15.752  13.819   6.264  0.7419 -0.6563  0.4039
    3ALA     CB   21  15.801  14.018   6.209  0.1336  0.5586  0.7813
    3ALA    HB1   22  15.877  14.071   6.153 -0.3832  1.3623  0.8241
    3ALA    HB2   23  15.703  14.030   6.163 -0.2385  0.0561  1.4180
    3ALA    HB3   24  15.784  14.053   6.311  0.3694  0.8928  0.7095
    3ALA      C   25  15.811  13.805   6.057  0.3758 -0.0979  0.1926
    3ALA      O   26  15.724  13.854   5.982  0.2765  0.0885  0.0806
    4ALA      N   27  15.887  13.703   6.018 -0.0722 -0.2457 -0.2260
    4ALA      H   28  15.944  13.662   6.090 -0.9456 -0.0705  0.5927
    4ALA     CA   29  15.899  13.641   5.887  0.6471 -0.7613  0.6303
    4ALA     HA   30  15.999  13.597   5.890 -0.6666 -3.9201  2.4966
    4ALA     CB   31  15.795  13.524   5.887  0.1845  0.3459  1.3386
    4ALA    HB1   32  15.817  13.456   5.805 -2.1259  1.0360  0.0625
    4ALA    HB2   33  15.815  13.468   5.978  2.7394  2.4449  2.1989
    4ALA    HB3   34  15.692  13.558   5.874 -0.1035 -0.4583  1.4653
    4ALA      C   35  15.895  13.723   5.760  0.0349  0.4247 -0.4181
    4ALA      O   36  16.004  13.750   5.704  0.2156 -0.0215 -0.0613
    5NME      N   37  15.774  13.765   5.720 -0.2444 -0.9393  0.1382
    5NME      H   38  15.698  13.746   5.784 -0.4968 -0.2216  0.0587
    5NME    CH3   39  15.733  13.866   5.623 -0.3847 -0.6178  1.0379
    5NME   HH31   40  15.727  13.815   5.528  0.2787 -0.0393  0.6727
    5NME   HH32   41  15.634  13.900   5.653  0.5277  1.8877  1.5514
    5NME   HH33   42  15.807  13.946   5.608 -0.6078 -0.6593 -0.4437
  20.91516  20.91516  20.91516
