Protein
   32
    1ACE   HH31    1  11.274  14.680  15.874  0.4436 -0.0973  0.1726
    1ACE    CH3    2  11.233  14.672  15.975  0.3384  0.0002  0.1358
    1ACE   HH32    3  11.216  14.570  16.009  0.6762  0.1397  0.7339
    1ACE   HH33    4  11.138  14.724  15.959  0.6231  0.7637  0.8783
    1ACE      C    5  11.316  14.750  16.074 -0.7280 -0.1555 -0.3755
    1ACE      O    6  11.413  14.811  16.036 -0.2456 -0.1031 -0.4779
    2ALA      N    7  11.275  14.728  16.198 -0.8984  0.2038  0.0028
    2ALA      H    8  11.187  14.681  16.215 -0.5209 -1.1912 -1.6211
    2ALA     CA    9  11.346  14.792  16.315  0.0796 -0.3081 -0.0999
    2ALA     HA   10  11.364  14.898  16.296  3.3306 -0.7638 -0.1612
    2ALA     CB   11  11.253  14.773  16.436  0.2699  0.2853  0.8329
    2ALA    HB1   12  11.156  14.801  16.395  0.2172 -2.7827 -1.5172
    2ALA    HB2   13  11.258  14.669  16.468  1.3790 -0.2209 -0.8500
    2ALA    HB3   14  11.286  14.833  16.521  2.3140 -1.1441  1.1357
    2ALA      C   15  11.487  14.742  16.338 -0.1840  0.0719  0.1804
    2ALA      O   16  11.583  14.820  16.344 -0.3185  0.6914 -0.3559
    3ALA      N   17  11.504  14.607  16.346 -0.3762  0.1611 -0.0908
    3ALA      H   18  11.436  14.543  16.308 -0.4647 -0.0325  0.3852
    3ALA     CA   19  11.635  14.542  16.369 -0.1798  0.3300  0.4200
    3ALA     HA   20  11.711  14.606  16.324  1.0258  0.8561  2.9794
    3ALA     CB   21  11.664  14.531  16.514 -0.3032  0.0420  0.3282
    3ALA    HB1   22  11.579  14.495  16.572 -1.2079  0.5655 -0.6162
    3ALA    HB2   23  11.753  14.469  16.522 -0.6487 -0.4202  0.6814
    3ALA    HB3   24  11.689  14.631  16.549  1.5762 -0.2085 -0.1930
    3ALA      C   25  11.635  14.397  16.306 -0.0910  0.6724 -0.0866
    3ALA      O   26  11.528  14.337  16.307 -0.3133 -0.4585 -0.2175
    4NME      N   27  11.751  14.346  16.274  0.0050 -0.6127 -0.1342
    4NME      H   28  11.827  14.410  16.290 -2.8777  2.8489  0.9735
    4NME    CH3   29  11.788  14.227  16.208  0.6226  0.5628 -0.0793
    4NME   HH31   30  11.850  14.165  16.272 -0.1091 -1.2320 -1.0263
    4NME   HH32   31  11.698  14.171  16.181 -0.3211  2.5925 -1.3856
    4NME   HH33   32  11.829  14.247  16.109  0.5763 -0.1475 -0.2407
  20.99041  20.99041  20.99041
