Protein
   42
    1ACE   HH31    1  16.122   8.363   4.341  0.4180  1.6809 -0.4492
    1ACE    CH3    2  16.175   8.308   4.264  0.0161 -0.4104  0.6837
    1ACE   HH32    3  16.274   8.274   4.293  0.8579  0.3582 -1.1874
    1ACE   HH33    4  16.185   8.371   4.176  0.3321 -1.8224 -0.3305
    1ACE      C    5  16.097   8.186   4.220  0.4587  0.1719 -0.5310
    1ACE      O    6  16.154   8.080   4.227  0.3732  0.4388  0.0363
    2ALA      N    7  15.973   8.204   4.180  0.5621  0.2382  0.0750
    2ALA      H    8  15.941   8.300   4.180  1.5429  0.5973 -1.5295
    2ALA     CA    9  15.873   8.105   4.144  0.5617  0.0133 -0.1162
    2ALA     HA   10  15.781   8.160   4.127  0.2573  0.1901  1.8701
    2ALA     CB   11  15.908   8.027   4.014 -0.7837  0.4059  0.1129
    2ALA    HB1   12  15.924   8.091   3.927  1.4704  0.0570  0.2298
    2ALA    HB2   13  16.006   7.980   4.018 -1.5202 -1.2432 -0.3915
    2ALA    HB3   14  15.831   7.952   3.993  0.6811 -1.4571  1.0955
    2ALA      C   15  15.830   8.017   4.270  1.0492 -0.7079  0.1155
    2ALA      O   16  15.733   8.045   4.337  0.2455  0.1320 -0.2386
    3ALA      N   17  15.916   7.918   4.288  0.2820 -0.8180 -0.9352
    3ALA      H   18  15.993   7.919   4.223 -1.1011 -1.2859 -2.6658
    3ALA     CA   19  15.918   7.830   4.408 -0.1142  0.4789 -0.1107
    3ALA     HA   20  15.839   7.874   4.470 -0.2564 -0.0734  0.1011
    3ALA     CB   21  15.864   7.693   4.370  0.3422  0.4829 -0.0774
    3ALA    HB1   22  15.911   7.611   4.424  0.7250  1.5213  1.2098
    3ALA    HB2   23  15.757   7.698   4.389  0.6638 -1.2152  2.6678
    3ALA    HB3   24  15.865   7.675   4.262  1.7904 -0.6712  0.1023
    3ALA      C   25  16.060   7.839   4.479 -0.4457  0.0193  0.0380
    3ALA      O   26  16.077   7.899   4.586 -0.2837  0.1941 -0.3155
    4ALA      N   27  16.161   7.792   4.406  0.3086  0.4109  0.3389
    4ALA      H   28  16.150   7.791   4.306 -0.7488  1.1366  0.4319
    4ALA     CA   29  16.291   7.751   4.458  0.2406  0.4212  0.5951
    4ALA     HA   30  16.292   7.764   4.567  3.3175 -0.8928  0.8271
    4ALA     CB   31  16.306   7.604   4.430 -0.0935  0.0369  0.7263
    4ALA    HB1   32  16.228   7.540   4.473  0.4295 -0.7123  0.5877
    4ALA    HB2   33  16.283   7.595   4.324 -1.2901  0.2146  0.9491
    4ALA    HB3   34  16.408   7.571   4.450 -0.5061 -0.8910  1.3985
    4ALA      C   35  16.410   7.832   4.392 -0.5250  0.5480  0.5047
    4ALA      O   36  16.528   7.788   4.391  0.0121  0.1158 -0.2254
    5NME      N   37  16.390   7.945   4.320  0.2220 -0.3433  0.6325
    5NME      H   38  16.299   7.986   4.333 -0.1458 -0.9930  0.1480
    5NME    CH3   39  16.499   8.016   4.244  0.6588  0.4383  0.3126
    5NME   HH31   40  16.593   7.960   4.250  1.3572  1.2807 -1.7844
    5NME   HH32   41  16.477   8.030   4.139 -1.7402  0.9242  0.8143
    5NME   HH33   42  16.533   8.108   4.290  3.4211 -0.5737  0.4864
  20.91516  20.91516  20.91516
