Protein
   42
    1ACE   HH31    1   7.067   8.805  11.420 -1.6782  2.4037 -0.3507
    1ACE    CH3    2   7.162   8.859  11.420 -0.0966 -0.1707  0.7504
    1ACE   HH32    3   7.176   8.907  11.516  0.9801 -1.8179  1.4605
    1ACE   HH33    4   7.147   8.936  11.343 -0.5936  0.1728  1.1852
    1ACE      C    5   7.289   8.781  11.389  0.5156  0.1064 -0.4275
    1ACE      O    6   7.368   8.817  11.304  0.1656  0.2030  0.4253
    2ALA      N    7   7.300   8.673  11.466  0.2983  0.0485 -0.2800
    2ALA      H    8   7.222   8.653  11.527 -1.1668  0.5959 -1.9166
    2ALA     CA    9   7.417   8.587  11.488  0.3988  0.3066 -0.6069
    2ALA     HA   10   7.501   8.656  11.483  1.7073 -0.9911  1.6798
    2ALA     CB   11   7.420   8.536  11.633  0.8932 -0.9171 -0.1768
    2ALA    HB1   12   7.435   8.619  11.702  0.1432 -0.5298 -0.4756
    2ALA    HB2   13   7.330   8.476  11.651 -0.7786  1.9457  1.6410
    2ALA    HB3   14   7.492   8.454  11.642 -0.5688 -2.3704 -0.8936
    2ALA      C   15   7.421   8.479  11.377 -0.8389  0.5428 -0.4002
    2ALA      O   16   7.419   8.354  11.409  0.8135 -0.0735  0.5169
    3ALA      N   17   7.409   8.511  11.249  0.1575 -0.1982 -0.2662
    3ALA      H   18   7.387   8.607  11.225  1.3687  0.0486 -0.4622
    3ALA     CA   19   7.369   8.406  11.150 -0.2572 -0.1805  0.3573
    3ALA     HA   20   7.345   8.454  11.055 -0.8395  0.7744  0.9817
    3ALA     CB   21   7.484   8.306  11.117 -0.9217  0.6900 -0.0228
    3ALA    HB1   22   7.503   8.244  11.204 -0.9237 -0.3472 -0.7521
    3ALA    HB2   23   7.452   8.243  11.034  2.5689  0.2514 -1.1740
    3ALA    HB3   24   7.579   8.347  11.085  0.8531 -2.5869  0.5932
    3ALA      C   25   7.235   8.334  11.188  0.3934 -0.2974  0.2446
    3ALA      O   26   7.161   8.376  11.278 -0.6770  0.3003  0.6453
    4ALA      N   27   7.199   8.228  11.109  0.5486  0.0866  0.0681
    4ALA      H   28   7.257   8.207  11.029 -0.3406  1.2333 -0.9106
    4ALA     CA   29   7.088   8.143  11.132 -0.0281  0.1523  0.0814
    4ALA     HA   30   7.081   8.150  11.240 -0.6322 -1.3997  0.1798
    4ALA     CB   31   6.963   8.193  11.065 -0.2614 -0.2133  0.0683
    4ALA    HB1   32   6.944   8.294  11.100  1.2465  0.1547 -0.1176
    4ALA    HB2   33   6.960   8.199  10.956 -1.1936  0.2040  0.1071
    4ALA    HB3   34   6.876   8.134  11.095 -0.4630 -1.0195 -1.9456
    4ALA      C   35   7.127   7.999  11.093  0.0845 -0.0800  0.4818
    4ALA      O   36   7.183   7.981  10.984 -0.0253 -0.2141  0.2383
    5NME      N   37   7.107   7.898  11.175  0.5987 -0.5317 -0.5886
    5NME      H   38   7.045   7.914  11.253  0.2359  1.4907 -1.2357
    5NME    CH3   39   7.145   7.757  11.144 -0.0895 -0.1650 -0.1900
    5NME   HH31   40   7.081   7.688  11.198  2.4079 -0.0484  3.2674
    5NME   HH32   41   7.137   7.738  11.037  3.1119  1.4190 -0.8464
    5NME   HH33   42   7.245   7.741  11.185 -0.1488  0.2592  0.1188
  20.91516  20.91516  20.91516
