Protein
   42
    1ACE   HH31    1  14.414   9.918   8.932  0.7399 -0.9613 -1.1407
    1ACE    CH3    2  14.353   9.916   8.841 -0.7838  0.3375 -0.2147
    1ACE   HH32    3  14.388   9.987   8.767  2.4623 -2.0065 -1.1744
    1ACE   HH33    4  14.246   9.902   8.855 -0.6395 -0.2095  0.4267
    1ACE      C    5  14.394   9.778   8.793 -0.0431  0.5362 -0.2995
    1ACE      O    6  14.469   9.758   8.697  0.2554 -0.0011  0.0371
    2ALA      N    7  14.351   9.677   8.872 -0.5458 -0.3509  0.0535
    2ALA      H    8  14.295   9.702   8.952 -0.2808  1.8976 -0.4196
    2ALA     CA    9  14.365   9.533   8.852  0.4753 -0.9829  0.2200
    2ALA     HA   10  14.313   9.498   8.763 -0.2478  0.5466  0.0144
    2ALA     CB   11  14.513   9.497   8.840 -0.5208  0.4619 -0.1025
    2ALA    HB1   12  14.548   9.525   8.741 -0.1959  1.4613  0.2947
    2ALA    HB2   13  14.563   9.563   8.910 -2.3239  0.3095  1.4051
    2ALA    HB3   14  14.541   9.395   8.868 -1.3995  0.6970  1.8382
    2ALA      C   15  14.309   9.468   8.981  0.1753  0.0819 -1.1137
    2ALA      O   16  14.302   9.521   9.087 -0.3428 -0.0842  0.3248
    3ALA      N   17  14.276   9.342   8.981  0.4495 -0.4466  0.1431
    3ALA      H   18  14.253   9.308   9.073 -0.4287 -0.6543 -0.1473
    3ALA     CA   19  14.255   9.256   8.868 -0.3528 -0.0337 -0.0241
    3ALA     HA   20  14.346   9.258   8.807  0.1482  0.9614  0.7207
    3ALA     CB   21  14.237   9.114   8.929  0.1523 -0.4834  0.2016
    3ALA    HB1   22  14.260   9.050   8.843  1.8856  2.0104 -1.3192
    3ALA    HB2   23  14.316   9.094   9.000  1.6633 -0.3926 -1.4047
    3ALA    HB3   24  14.138   9.094   8.969 -0.4323 -0.9545 -1.3730
    3ALA      C   25  14.139   9.288   8.777 -0.1824  0.1203  0.0344
    3ALA      O   26  14.159   9.257   8.661 -0.2662  0.2192  0.0487
    4ALA      N   27  14.034   9.358   8.815 -0.4577  0.2086  0.0492
    4ALA      H   28  14.029   9.380   8.914  2.0127 -2.1236  0.8415
    4ALA     CA   29  13.960   9.435   8.712 -0.0015  0.3431 -0.0230
    4ALA     HA   30  13.938   9.370   8.628 -0.6135 -0.4318  0.7048
    4ALA     CB   31  13.837   9.498   8.773  0.2598 -0.8846 -0.3597
    4ALA    HB1   32  13.865   9.542   8.869  1.2393  0.7265 -1.3318
    4ALA    HB2   33  13.799   9.574   8.705 -0.5162 -0.6584  0.3081
    4ALA    HB3   34  13.758   9.423   8.772 -1.3123  0.5382 -4.7148
    4ALA      C   35  14.049   9.549   8.653 -0.1906  0.1885  0.0815
    4ALA      O   36  14.065   9.645   8.729  0.7022 -0.0055  0.3432
    5NME      N   37  14.091   9.541   8.531  0.0956 -0.1174  0.8022
    5NME      H   38  14.082   9.452   8.484 -0.0559 -0.0545  0.7129
    5NME    CH3   39  14.179   9.636   8.467 -0.4469  0.2729 -0.2022
    5NME   HH31   40  14.273   9.593   8.431 -0.2032  0.4806  0.1932
    5NME   HH32   41  14.121   9.682   8.388 -1.0045 -1.1413 -0.6394
    5NME   HH33   42  14.201   9.712   8.542 -0.3352 -0.5870  0.6544
  20.91516  20.91516  20.91516
