Protein
   42
    1ACE   HH31    1   2.035   8.765  17.155 -0.2374  1.0195  1.2561
    1ACE    CH3    2   2.048   8.843  17.080 -0.1944 -0.6002 -0.4929
    1ACE   HH32    3   2.098   8.796  16.995 -0.2421 -2.3677  0.4282
    1ACE   HH33    4   2.106   8.925  17.121  2.7446 -1.7684 -2.0010
    1ACE      C    5   1.916   8.886  17.035  0.1702 -0.1644 -0.1146
    1ACE      O    6   1.832   8.929  17.116  0.3370  0.2452  0.1821
    2ALA      N    7   1.879   8.851  16.912  0.2340 -0.1518 -0.1363
    2ALA      H    8   1.944   8.805  16.850  0.1128  1.0477 -1.2182
    2ALA     CA    9   1.752   8.878  16.858  0.5187  0.0670  0.0256
    2ALA     HA   10   1.698   8.960  16.905 -3.7949 -2.2620 -0.3536
    2ALA     CB   11   1.764   8.923  16.711 -0.2671  0.6862  0.3549
    2ALA    HB1   12   1.775   8.837  16.645 -0.4282  0.5690  0.4796
    2ALA    HB2   13   1.666   8.959  16.680 -0.2965  0.3411  0.0417
    2ALA    HB3   14   1.837   9.003  16.698 -0.1299  0.8732  2.0638
    2ALA      C   15   1.664   8.751  16.881  0.2129  0.1378  0.2152
    2ALA      O   16   1.706   8.639  16.851  0.5260  0.0802  0.1010
    3ALA      N   17   1.536   8.760  16.921  0.8055 -0.2177 -0.4787
    3ALA      H   18   1.478   8.678  16.908 -0.1410  0.1236  1.2499
    3ALA     CA   19   1.463   8.876  16.973  0.3851 -0.3891  0.2460
    3ALA     HA   20   1.519   8.966  16.947  1.9730 -1.4535 -0.1699
    3ALA     CB   21   1.318   8.876  16.908  0.2430 -0.0152  0.2543
    3ALA    HB1   22   1.317   8.876  16.799  1.9425  0.1922  0.2042
    3ALA    HB2   23   1.260   8.794  16.951 -0.0792  0.4466  0.7090
    3ALA    HB3   24   1.262   8.964  16.938  0.7475  0.5957 -0.5316
    3ALA      C   25   1.459   8.878  17.128  0.4831 -0.5354 -0.8678
    3ALA      O   26   1.390   8.961  17.192 -0.1210 -0.3563  0.4239
    4ALA      N   27   1.523   8.783  17.194  0.3651 -0.1421 -0.0702
    4ALA      H   28   1.571   8.712  17.140  1.5426  1.1152 -0.7108
    4ALA     CA   29   1.540   8.762  17.339 -0.2733  0.7299 -0.7516
    4ALA     HA   30   1.447   8.722  17.380 -0.4192  1.5772 -0.2261
    4ALA     CB   31   1.654   8.656  17.347  0.1512  0.0570 -0.2998
    4ALA    HB1   32   1.623   8.569  17.289  2.0301 -0.4110 -0.6568
    4ALA    HB2   33   1.745   8.698  17.304  0.4837  0.4468  0.7595
    4ALA    HB3   34   1.672   8.620  17.448  1.1718 -0.0852 -0.5223
    4ALA      C   35   1.565   8.892  17.418 -0.5949 -0.1896 -0.6240
    4ALA      O   36   1.492   8.919  17.509  0.1409  0.1944  0.2290
    5NME      N   37   1.669   8.966  17.385  0.2989  0.0497 -0.1293
    5NME      H   38   1.722   8.938  17.304  0.9079  0.6545  0.0495
    5NME    CH3   39   1.699   9.093  17.453 -0.2599 -0.0332 -0.6524
    5NME   HH31   40   1.732   9.076  17.556  0.7376 -1.2364 -1.1503
    5NME   HH32   41   1.786   9.141  17.408  0.6292  0.7741  1.7442
    5NME   HH33   42   1.613   9.159  17.462 -0.8649 -0.8415 -0.3951
  20.91516  20.91516  20.91516
