Protein
   32
    1ACE   HH31    1  12.123  12.235  13.472  0.0038  2.2896  0.9128
    1ACE    CH3    2  12.084  12.270  13.376 -0.3447 -0.0441  0.1381
    1ACE   HH32    3  12.099  12.378  13.371  0.4009 -0.1327  0.2175
    1ACE   HH33    4  11.978  12.251  13.362 -0.3105  1.0906 -2.1955
    1ACE      C    5  12.174  12.210  13.266  0.3199 -0.5495 -0.4294
    1ACE      O    6  12.245  12.288  13.203 -0.2886 -0.0180 -0.1129
    2ALA      N    7  12.166  12.081  13.244  0.2859 -0.6702  0.6379
    2ALA      H    8  12.084  12.033  13.278 -1.0383 -0.3678 -1.8226
    2ALA     CA    9  12.226  12.023  13.122 -0.1418 -0.1718  0.0518
    2ALA     HA   10  12.240  12.100  13.046  2.0112  2.1633  2.6111
    2ALA     CB   11  12.371  11.989  13.153  0.3277 -0.1487  0.2913
    2ALA    HB1   12  12.373  11.921  13.238 -3.9425  1.1906  1.7018
    2ALA    HB2   13  12.414  11.947  13.063 -1.3904 -1.4061  0.0087
    2ALA    HB3   14  12.421  12.083  13.175 -0.0107  0.1480 -0.1857
    2ALA      C   15  12.137  11.901  13.074 -0.2847 -0.4995  0.0954
    2ALA      O   16  12.023  11.886  13.118 -0.5876 -0.0895 -0.0372
    3ALA      N   17  12.198  11.814  12.989 -0.5361 -0.6576 -0.3347
    3ALA      H   18  12.290  11.830  12.951 -1.0330  0.3431 -1.1541
    3ALA     CA   19  12.123  11.696  12.939 -0.2347 -0.4351  0.2244
    3ALA     HA   20  12.029  11.735  12.902  0.0785  0.3764  0.2605
    3ALA     CB   21  12.207  11.637  12.821 -0.2050  0.2885  0.3695
    3ALA    HB1   22  12.297  11.599  12.868 -0.5532  0.1049  0.9023
    3ALA    HB2   23  12.138  11.573  12.766  1.6372  0.2936 -2.1465
    3ALA    HB3   24  12.240  11.713  12.750 -0.3733 -1.0494 -1.1934
    3ALA      C   25  12.090  11.596  13.057  0.4452 -0.2339 -0.1926
    3ALA      O   26  12.172  11.509  13.097 -0.1586 -0.4681 -0.0345
    4NME      N   27  11.971  11.611  13.119  0.0894  0.4221 -0.5207
    4NME      H   28  11.907  11.684  13.090 -0.2424 -0.3663 -1.8932
    4NME    CH3   29  11.923  11.529  13.226  0.3687 -0.3146 -0.1007
    4NME   HH31   30  11.996  11.521  13.307  1.2205  1.2356 -0.6712
    4NME   HH32   31  11.827  11.560  13.267  0.9564  1.5818 -0.0736
    4NME   HH33   32  11.905  11.428  13.188  2.0332 -1.7448  2.5978
  20.99041  20.99041  20.99041
