Protein
   32
    1ACE   HH31    1   5.276   8.110  11.366  0.8548 -1.0113  1.6357
    1ACE    CH3    2   5.295   8.064  11.269  0.1713  0.1377  0.9361
    1ACE   HH32    3   5.270   8.119  11.179 -0.9134 -2.7683 -0.6614
    1ACE   HH33    4   5.234   7.974  11.260 -0.4067  0.4761  1.3546
    1ACE      C    5   5.437   8.030  11.256 -0.4641 -1.1255 -0.2977
    1ACE      O    6   5.503   8.089  11.176  0.3098 -0.6609 -0.1859
    2ALA      N    7   5.492   7.961  11.356 -0.2580  0.3620  0.0407
    2ALA      H    8   5.431   7.926  11.428 -0.2552  0.6926  0.2084
    2ALA     CA    9   5.635   7.938  11.373  0.1222  0.2154 -0.0376
    2ALA     HA   10   5.683   8.017  11.315  1.4180 -1.4819 -1.4141
    2ALA     CB   11   5.671   7.951  11.523 -0.0060  0.3666  0.1628
    2ALA    HB1   12   5.649   8.053  11.556 -2.1688 -0.0216  0.0317
    2ALA    HB2   13   5.605   7.877  11.569  2.0319 -0.6115  1.6836
    2ALA    HB3   14   5.773   7.916  11.534 -0.8509 -1.8280  1.7311
    2ALA      C   15   5.692   7.811  11.309  1.3295  0.1047  0.7627
    2ALA      O   16   5.690   7.711  11.378  0.2128  0.1781 -0.0275
    3ALA      N   17   5.749   7.812  11.188 -0.3999  0.4263  0.2572
    3ALA      H   18   5.736   7.896  11.134 -1.3147 -0.1493 -0.4568
    3ALA     CA   19   5.778   7.690  11.105 -0.6680 -0.0468  0.5506
    3ALA     HA   20   5.762   7.712  10.999  0.2369 -1.2025  0.1515
    3ALA     CB   21   5.932   7.643  11.128  0.7096  0.8464  0.0431
    3ALA    HB1   22   6.005   7.718  11.098  2.2085 -0.6950 -0.3389
    3ALA    HB2   23   5.944   7.609  11.231 -0.6645 -3.5568 -1.0348
    3ALA    HB3   24   5.955   7.553  11.071 -2.5431 -0.0440 -0.0810
    3ALA      C   25   5.676   7.578  11.128 -0.1539  0.3598 -0.1421
    3ALA      O   26   5.559   7.594  11.092 -0.0777  0.2226  0.5469
    4NME      N   27   5.716   7.465  11.194  0.4062  0.1254  0.4969
    4NME      H   28   5.808   7.470  11.236  1.3168  0.7085 -1.3944
    4NME    CH3   29   5.643   7.345  11.226  0.3417  0.2421 -0.0361
    4NME   HH31   30   5.588   7.326  11.134 -0.3828 -0.2248  0.4792
    4NME   HH32   31   5.713   7.262  11.236  1.3073  1.1927  1.4087
    4NME   HH33   32   5.586   7.370  11.316 -0.8698 -2.0962 -0.0800
  20.99041  20.99041  20.99041
