Protein
   42
    1ACE   HH31    1   9.184   5.454  13.339 -0.4366  0.5555  0.5016
    1ACE    CH3    2   9.232   5.526  13.273  0.4195 -0.2993  0.1720
    1ACE   HH32    3   9.164   5.600  13.232 -0.2126  0.4228  2.4046
    1ACE   HH33    4   9.299   5.481  13.200 -0.7661 -0.5817 -0.7643
    1ACE      C    5   9.325   5.614  13.358  0.0753 -1.1511  0.9538
    1ACE      O    6   9.320   5.736  13.348 -0.0758 -0.4344  0.2337
    2ALA      N    7   9.398   5.547  13.446  0.0837 -0.4485 -0.2304
    2ALA      H    8   9.377   5.448  13.443 -1.6698 -0.0968 -1.5983
    2ALA     CA    9   9.497   5.597  13.542  0.4101 -0.0638  0.0224
    2ALA     HA   10   9.448   5.671  13.605  1.1352  0.7106 -0.2979
    2ALA     CB   11   9.528   5.484  13.636  0.0554  0.2947 -0.3757
    2ALA    HB1   12   9.578   5.400  13.586 -3.0135 -0.5278 -2.3272
    2ALA    HB2   13   9.589   5.521  13.719  1.0649 -1.0088 -0.5036
    2ALA    HB3   14   9.438   5.440  13.678  0.3261  0.5222  0.4981
    2ALA      C   15   9.626   5.664  13.482 -0.0196 -0.4195 -0.6842
    2ALA      O   16   9.726   5.666  13.550 -0.3124 -0.5897 -0.4381
    3ALA      N   17   9.631   5.707  13.360  0.1551  0.2478  0.0218
    3ALA      H   18   9.547   5.699  13.306 -0.9161 -2.8498  1.8896
    3ALA     CA   19   9.746   5.771  13.285 -0.0442 -0.3182 -0.1462
    3ALA     HA   20   9.839   5.723  13.316 -0.8211 -1.0663  1.1075
    3ALA     CB   21   9.729   5.756  13.133  0.3547 -0.3263  0.2046
    3ALA    HB1   22   9.809   5.797  13.070  0.0493 -0.2246 -0.1124
    3ALA    HB2   23   9.724   5.648  13.121  0.3560 -0.1605 -1.5276
    3ALA    HB3   24   9.639   5.809  13.101  1.8234  2.3203  0.1380
    3ALA      C   25   9.753   5.920  13.330  0.5998  0.6141 -0.2642
    3ALA      O   26   9.730   6.004  13.243 -0.5848 -0.2682 -0.1021
    4ALA      N   27   9.788   5.943  13.457 -0.3526 -0.3487  0.1598
    4ALA      H   28   9.800   5.860  13.513  0.1102 -0.4587 -0.0878
    4ALA     CA   29   9.770   6.065  13.527 -0.2419 -0.4279 -0.2745
    4ALA     HA   30   9.762   6.037  13.632  0.8712 -1.3730 -0.4297
    4ALA     CB   31   9.891   6.152  13.513 -0.2880 -0.5796 -0.3837
    4ALA    HB1   32   9.904   6.197  13.415 -0.1721 -0.2580 -0.2233
    4ALA    HB2   33   9.878   6.234  13.583 -0.0730 -1.4695  0.7513
    4ALA    HB3   34   9.979   6.099  13.550 -0.7013 -0.0828  1.3818
    4ALA      C   35   9.640   6.145  13.506 -0.2859 -0.2880 -0.3154
    4ALA      O   36   9.568   6.172  13.599  0.0641  0.0543 -0.4630
    5NME      N   37   9.615   6.195  13.386 -0.0607  0.1638 -0.1848
    5NME      H   38   9.684   6.185  13.313  0.7771  1.1507  0.4229
    5NME    CH3   39   9.501   6.272  13.360  0.0046 -0.9388  0.4105
    5NME   HH31   40   9.455   6.310  13.452  1.9326  1.7760  0.3441
    5NME   HH32   41   9.524   6.350  13.288  0.2318 -1.9567 -0.6601
    5NME   HH33   42   9.423   6.212  13.313 -1.6566  1.4361 -0.0650
  20.91516  20.91516  20.91516
