Protein
   32
    1ACE   HH31    1  12.462   8.647  13.300  1.2758 -0.1538  1.1970
    1ACE    CH3    2  12.432   8.746  13.332  0.0449 -0.1841  0.2186
    1ACE   HH32    3  12.524   8.803  13.348 -0.2885  0.6336 -0.6946
    1ACE   HH33    4  12.363   8.741  13.417 -0.7676 -3.3111 -0.5323
    1ACE      C    5  12.361   8.798  13.210  0.0523 -0.1055 -0.2455
    1ACE      O    6  12.248   8.760  13.190  0.1174 -0.5989  0.2864
    2ALA      N    7  12.415   8.888  13.131  0.5229  0.3066  0.0162
    2ALA      H    8  12.510   8.913  13.156  0.9388 -0.7775 -0.3891
    2ALA     CA    9  12.354   8.967  13.025 -0.1130 -0.0607  0.2381
    2ALA     HA   10  12.271   9.010  13.081  1.1421  1.1565  1.2450
    2ALA     CB   11  12.433   9.091  12.986  0.0469 -0.4491 -0.5381
    2ALA    HB1   12  12.465   9.148  13.074  2.2553  1.1613 -2.2621
    2ALA    HB2   13  12.521   9.072  12.925  0.8260  0.2968  0.3116
    2ALA    HB3   14  12.371   9.166  12.937  1.0922  1.4617  0.8833
    2ALA      C   15  12.302   8.886  12.905 -0.3020 -0.5623 -0.1852
    2ALA      O   16  12.279   8.946  12.796 -0.5694  0.3624  0.1378
    3ALA      N   17  12.285   8.757  12.913 -0.1267  0.0752  0.2314
    3ALA      H   18  12.284   8.718  13.006 -0.2134 -1.2678 -0.3107
    3ALA     CA   19  12.282   8.648  12.811  0.1251 -0.5071  0.1375
    3ALA     HA   20  12.328   8.561  12.858  1.0845 -0.2145 -0.2219
    3ALA     CB   21  12.138   8.606  12.782 -0.5822  0.7439 -0.5900
    3ALA    HB1   22  12.137   8.507  12.737 -0.8603  0.2178  0.5356
    3ALA    HB2   23  12.081   8.595  12.874  0.6921 -0.9002  0.0502
    3ALA    HB3   24  12.093   8.678  12.714  1.1886  1.8569 -0.6626
    3ALA      C   25  12.363   8.667  12.685  1.1529 -0.1500  0.4628
    3ALA      O   26  12.457   8.588  12.668 -0.1168 -0.1573 -0.1812
    4NME      N   27  12.329   8.764  12.599 -0.1160 -0.7919  0.1399
    4NME      H   28  12.261   8.830  12.635 -1.3808 -1.0803 -1.5838
    4NME    CH3   29  12.376   8.767  12.459  1.4948 -0.0932 -0.1129
    4NME   HH31   30  12.478   8.732  12.471  2.6240  2.4018 -1.3851
    4NME   HH32   31  12.316   8.701  12.396  2.3980 -2.2045  1.1472
    4NME   HH33   32  12.367   8.871  12.427 -1.0346 -0.2131  0.0900
  20.99041  20.99041  20.99041
