Protein
   42
    1ACE   HH31    1  12.421  11.387  12.550 -1.5446 -1.4452  1.4249
    1ACE    CH3    2  12.332  11.373  12.489 -1.2037  0.5150  0.3631
    1ACE   HH32    3  12.349  11.387  12.383  0.3520 -0.3248  0.4699
    1ACE   HH33    4  12.261  11.444  12.533 -2.1164 -0.8572  1.2258
    1ACE      C    5  12.270  11.236  12.519 -0.6931  0.4090 -0.1843
    1ACE      O    6  12.328  11.140  12.470  0.0606  0.1070 -0.0793
    2ALA      N    7  12.170  11.224  12.606 -0.2943 -0.5310  0.5252
    2ALA      H    8  12.141  11.308  12.653  1.4679 -1.1554  2.9122
    2ALA     CA    9  12.086  11.110  12.636 -0.8456 -0.1669 -0.0758
    2ALA     HA   10  12.096  11.047  12.547  1.8840  0.4723 -0.2797
    2ALA     CB   11  12.145  11.032  12.754 -0.3025  0.0420  0.1587
    2ALA    HB1   12  12.183  11.106  12.824 -0.6338 -0.7438  1.2163
    2ALA    HB2   13  12.065  10.969  12.794 -0.6491  0.9429  0.8958
    2ALA    HB3   14  12.234  10.971  12.742  0.8152  1.9198 -1.6771
    2ALA      C   15  11.946  11.161  12.659 -0.6710 -0.6083 -0.5613
    2ALA      O   16  11.929  11.274  12.714 -0.0442  0.7015 -0.2169
    3ALA      N   17  11.842  11.107  12.599 -0.0471 -0.0719 -0.1406
    3ALA      H   18  11.759  11.162  12.612 -0.0744 -0.0920 -0.2272
    3ALA     CA   19  11.839  10.999  12.501  0.1489 -0.1068  0.2579
    3ALA     HA   20  11.918  11.017  12.428 -0.1103  0.4842  0.1164
    3ALA     CB   21  11.859  10.864  12.575 -0.5066 -0.3655  0.2148
    3ALA    HB1   22  11.881  10.790  12.498 -1.1864 -2.1807  1.6937
    3ALA    HB2   23  11.945  10.861  12.642 -1.4214 -2.5040  1.3719
    3ALA    HB3   24  11.770  10.823  12.622 -0.9269 -1.1782 -1.1932
    3ALA      C   25  11.698  11.002  12.437  0.6979  0.0424  0.7166
    3ALA      O   26  11.597  11.037  12.504 -0.5113 -0.0357 -0.0898
    4ALA      N   27  11.697  10.954  12.315 -0.0496  0.4792 -0.3692
    4ALA      H   28  11.785  10.927  12.274 -1.0274 -0.5040 -1.9191
    4ALA     CA   29  11.573  10.917  12.243  0.5988 -0.5703  0.0762
    4ALA     HA   30  11.488  10.938  12.308 -0.0876 -0.3646 -0.8524
    4ALA     CB   31  11.571  10.999  12.112 -0.1680 -0.2652 -0.1956
    4ALA    HB1   32  11.492  10.972  12.041 -1.5064 -0.9246  1.4596
    4ALA    HB2   33  11.551  11.103  12.136 -0.4245 -0.5022  0.6340
    4ALA    HB3   34  11.661  10.990  12.051  0.0926 -1.7438  0.3798
    4ALA      C   35  11.564  10.767  12.204  0.6071  0.3992  0.1493
    4ALA      O   36  11.655  10.691  12.228  0.3094 -0.2135 -0.3630
    5NME      N   37  11.453  10.721  12.144 -0.3120 -0.1733  0.2910
    5NME      H   38  11.375  10.785  12.138 -0.0289  0.0512 -1.9426
    5NME    CH3   39  11.444  10.593  12.079 -0.2103  0.5714  0.2159
    5NME   HH31   40  11.462  10.599  11.972  1.0385 -3.7168  0.0555
    5NME   HH32   41  11.502  10.514  12.125 -1.8924  0.1782  1.7604
    5NME   HH33   42  11.343  10.554  12.089 -0.4332  0.2583 -2.4197
  20.91516  20.91516  20.91516
