Protein
   32
    1ACE   HH31    1  14.025  10.193   4.400  0.0722 -0.3730 -1.2807
    1ACE    CH3    2  14.088  10.106   4.412 -0.5117 -0.5811  0.5043
    1ACE   HH32    3  14.191  10.136   4.430 -0.7251  1.8140 -1.8066
    1ACE   HH33    4  14.080  10.050   4.319  1.7899  2.0083 -1.4081
    1ACE      C    5  14.047  10.046   4.550  0.3083 -0.1604 -0.7244
    1ACE      O    6  13.935  10.075   4.591 -0.0000  1.2224 -0.4829
    2ALA      N    7  14.125   9.951   4.601 -0.0192 -0.7296  0.0886
    2ALA      H    8  14.216   9.938   4.559  0.4028  2.1884 -0.1287
    2ALA     CA    9  14.095   9.889   4.724  0.2675 -0.6336  0.2350
    2ALA     HA   10  14.027   9.952   4.781 -1.3874 -0.6988 -1.5905
    2ALA     CB   11  14.024   9.753   4.690 -0.1494 -0.0885 -0.1336
    2ALA    HB1   12  13.996   9.692   4.776  1.0038  0.9754  1.0270
    2ALA    HB2   13  13.938   9.778   4.628 -1.1571  0.3000  1.3669
    2ALA    HB3   14  14.079   9.688   4.622 -1.5848 -0.3953 -1.0480
    2ALA      C   15  14.225   9.874   4.807 -0.0876  0.0795 -0.3297
    2ALA      O   16  14.325   9.937   4.793  0.0136 -0.4561 -0.1228
    3ALA      N   17  14.227   9.774   4.897 -0.1054 -0.0398 -0.2187
    3ALA      H   18  14.152   9.707   4.897  0.1619 -0.3510 -1.1371
    3ALA     CA   19  14.343   9.747   4.985  0.1821 -0.5210 -0.1189
    3ALA     HA   20  14.439   9.782   4.948  1.8094 -0.8480  3.4443
    3ALA     CB   21  14.325   9.826   5.120  1.1414 -0.5339 -0.7658
    3ALA    HB1   22  14.403   9.806   5.193  1.7080  1.6431 -0.7130
    3ALA    HB2   23  14.329   9.934   5.109 -1.4144 -0.2961  0.1114
    3ALA    HB3   24  14.234   9.796   5.171  1.2490  1.0281  0.4095
    3ALA      C   25  14.359   9.601   5.006  0.0329  0.0105 -0.8115
    3ALA      O   26  14.267   9.542   5.067  0.2994 -0.4046  0.3971
    4NME      N   27  14.465   9.538   4.951  0.4491  0.2675 -0.1879
    4NME      H   28  14.542   9.593   4.916  0.6817 -0.3504 -0.6758
    4NME    CH3   29  14.483   9.397   4.917  0.4351  0.3833 -0.3658
    4NME   HH31   30  14.585   9.383   4.883  0.9221  0.7259  0.9242
    4NME   HH32   31  14.455   9.319   4.988 -0.5996 -1.6144 -2.8223
    4NME   HH33   32  14.413   9.373   4.837  1.3070 -1.2574 -0.6674
  20.99041  20.99041  20.99041
