Protein
   42
    1ACE   HH31    1  10.956  16.066  10.555 -0.1734  0.4855  0.4353
    1ACE    CH3    2  10.863  16.053  10.499  0.2825 -0.0144 -0.2196
    1ACE   HH32    3  10.838  16.155  10.468  0.4509  0.1181  0.0762
    1ACE   HH33    4  10.775  16.021  10.554  1.3482 -1.7306  0.5482
    1ACE      C    5  10.880  15.970  10.376  0.1049 -1.3767  0.1218
    1ACE      O    6  10.985  15.964  10.310 -0.4749 -0.2129 -0.0637
    2ALA      N    7  10.782  15.894  10.347 -0.3245  0.7203  0.1080
    2ALA      H    8  10.696  15.904  10.400 -1.1377  0.1701 -1.0719
    2ALA     CA    9  10.774  15.829  10.214 -0.2491  0.3098  0.7872
    2ALA     HA   10  10.855  15.756  10.217 -0.4426  0.1082  1.2440
    2ALA     CB   11  10.636  15.759  10.207  0.7626 -0.0096  0.2731
    2ALA    HB1   12  10.632  15.673  10.274 -1.4936 -0.0258  0.2212
    2ALA    HB2   13  10.559  15.830  10.238  0.1162 -0.9499  0.8434
    2ALA    HB3   14  10.612  15.723  10.107  0.6000  0.6984  0.0491
    2ALA      C   15  10.794  15.917  10.092  0.0835  0.1347 -0.4513
    2ALA      O   16  10.764  16.035  10.086  0.2440 -0.6852  0.1392
    3ALA      N   17  10.852  15.859   9.984  0.1433 -0.1846 -0.2480
    3ALA      H   18  10.860  15.932   9.915 -1.5045 -0.8809 -1.2270
    3ALA     CA   19  10.901  15.724   9.953 -0.0547  0.8198  0.1091
    3ALA     HA   20  10.828  15.663  10.005 -0.6684  2.0769  0.7485
    3ALA     CB   21  10.907  15.695   9.803  0.5530  0.9190  0.0074
    3ALA    HB1   22  10.805  15.690   9.764  1.1777 -0.3514 -1.5722
    3ALA    HB2   23  10.970  15.763   9.746  1.5672  0.6944  0.8234
    3ALA    HB3   24  10.946  15.593   9.798 -1.3429  0.1017  0.8700
    3ALA      C   25  11.040  15.695  10.019 -0.0126 -0.6112 -0.5282
    3ALA      O   26  11.084  15.581  10.003  0.1779  0.1440 -0.0041
    4ALA      N   27  11.102  15.780  10.102 -0.1729 -0.3129 -0.3764
    4ALA      H   28  11.062  15.871  10.118  1.1720  0.4626 -1.2091
    4ALA     CA   29  11.240  15.784  10.136 -1.4136 -0.1006 -0.0187
    4ALA     HA   30  11.259  15.882  10.181  3.7981 -0.7708 -0.1682
    4ALA     CB   31  11.272  15.685  10.246 -0.2834 -0.0387  0.2916
    4ALA    HB1   32  11.370  15.694  10.293 -0.7374  0.3482  1.1957
    4ALA    HB2   33  11.209  15.700  10.334  1.1742  0.3272  1.3003
    4ALA    HB3   34  11.264  15.582  10.213  2.1264 -0.8433  2.0074
    4ALA      C   35  11.342  15.788  10.025 -0.0753 -0.6461  0.0871
    4ALA      O   36  11.433  15.870  10.024  0.5809 -0.7114  0.4099
    5NME      N   37  11.335  15.697   9.932 -0.2042  0.0373  0.1906
    5NME      H   38  11.255  15.636   9.936 -0.4741  0.2743 -0.9788
    5NME    CH3   39  11.447  15.665   9.838  0.4629 -0.3555  0.4309
    5NME   HH31   40  11.546  15.671   9.883  0.3250  1.5646  0.5914
    5NME   HH32   41  11.433  15.559   9.817 -0.1093 -0.4022  1.0092
    5NME   HH33   42  11.442  15.727   9.749  1.1124  0.1018  0.7087
  20.91516  20.91516  20.91516
