Protein
   32
    1ACE   HH31    1   8.321   8.714   8.597  0.4076  0.1897 -1.6942
    1ACE    CH3    2   8.419   8.680   8.632 -0.4054 -0.5841 -0.0352
    1ACE   HH32    3   8.397   8.609   8.711 -0.7577  0.6606  1.0261
    1ACE   HH33    4   8.482   8.758   8.675  0.1286 -1.0472  0.0311
    1ACE      C    5   8.494   8.616   8.515  0.0627  0.2012 -0.1714
    1ACE      O    6   8.615   8.625   8.511  0.4131  0.1089 -0.3008
    2ALA      N    7   8.430   8.535   8.433  0.5580 -0.0465  0.4154
    2ALA      H    8   8.332   8.519   8.449  0.2042 -0.5089 -1.8421
    2ALA     CA    9   8.480   8.479   8.306  0.2115 -0.0302  0.6318
    2ALA     HA   10   8.570   8.419   8.317 -1.1075 -2.4348 -0.7875
    2ALA     CB   11   8.372   8.379   8.251  0.1521 -0.3878 -0.0997
    2ALA    HB1   12   8.357   8.295   8.319 -0.8177 -0.3280 -0.2282
    2ALA    HB2   13   8.286   8.442   8.226  0.9416  0.3522 -1.0434
    2ALA    HB3   14   8.414   8.334   8.161 -1.3580 -2.3290  0.0926
    2ALA      C   15   8.513   8.581   8.197 -0.5126 -0.2524  0.0675
    2ALA      O   16   8.509   8.551   8.078  0.4965 -0.1954 -0.0116
    3ALA      N   17   8.552   8.693   8.241 -0.1233  0.1020 -0.2136
    3ALA      H   18   8.571   8.699   8.340 -1.3914  1.8400 -0.0348
    3ALA     CA   19   8.596   8.809   8.161  0.1088 -0.2047 -0.2839
    3ALA     HA   20   8.624   8.888   8.231  0.3183 -1.4588  1.1070
    3ALA     CB   21   8.734   8.775   8.098  0.4187  0.8196  0.8189
    3ALA    HB1   22   8.805   8.761   8.180  0.6556  2.2190  0.8848
    3ALA    HB2   23   8.724   8.680   8.045  2.3060 -0.5822  2.8204
    3ALA    HB3   24   8.771   8.856   8.035 -0.3913  0.7619  0.2604
    3ALA      C   25   8.497   8.867   8.058  0.1526  0.0993 -0.0859
    3ALA      O   26   8.535   8.959   7.993 -0.0897 -0.2564  0.5334
    4NME      N   27   8.369   8.826   8.058  0.3589 -0.0857 -0.0699
    4NME      H   28   8.333   8.757   8.121 -3.7230  1.7306 -0.0894
    4NME    CH3   29   8.259   8.876   7.974  0.4470 -0.5684  0.5921
    4NME   HH31   30   8.294   8.932   7.887  0.4159 -0.4034  0.6848
    4NME   HH32   31   8.201   8.790   7.942 -2.9022  1.9440 -0.8172
    4NME   HH33   32   8.187   8.936   8.031  1.1975  0.8715  0.0654
  20.99041  20.99041  20.99041
