Protein
   32
    1ACE   HH31    1  10.040   7.797  11.427 -1.5324  1.2682  0.0970
    1ACE    CH3    2   9.991   7.719  11.485 -0.2177  0.2304 -0.1404
    1ACE   HH32    3   9.907   7.763  11.539 -0.3707  1.4823 -1.3391
    1ACE   HH33    4  10.058   7.691  11.567  1.5998  3.7190 -0.2140
    1ACE      C    5   9.957   7.598  11.398 -0.2295  0.1272 -0.0571
    1ACE      O    6  10.036   7.520  11.351  0.0506 -0.5350  0.2311
    2ALA      N    7   9.832   7.590  11.364  0.6874 -0.3818  0.3086
    2ALA      H    8   9.782   7.672  11.393  2.4764  0.1618  2.1451
    2ALA     CA    9   9.775   7.480  11.288  0.3327 -0.1306  0.2275
    2ALA     HA   10   9.823   7.392  11.332 -1.1476 -0.7212  0.7658
    2ALA     CB   11   9.618   7.477  11.307 -0.0359 -0.3209  0.4281
    2ALA    HB1   12   9.574   7.564  11.258  0.3358 -0.1360  0.4137
    2ALA    HB2   13   9.566   7.391  11.265 -1.0174  0.1494  0.6308
    2ALA    HB3   14   9.593   7.483  11.413 -2.4461 -0.1318 -0.0712
    2ALA      C   15   9.805   7.490  11.134 -0.0056 -0.8557 -0.2085
    2ALA      O   16   9.713   7.479  11.052  0.3068 -0.2645  0.5163
    3ALA      N   17   9.924   7.531  11.094 -0.6239 -0.6215 -0.4162
    3ALA      H   18   9.988   7.556  11.168 -0.1376  0.0900 -1.0428
    3ALA     CA   19   9.962   7.566  10.957 -0.1327  0.3426  0.0724
    3ALA     HA   20   9.901   7.647  10.917  0.3633  0.9602  0.5190
    3ALA     CB   21  10.099   7.623  10.961  0.6381  0.5545 -0.2241
    3ALA    HB1   22  10.107   7.707  11.030  0.2283 -0.1115  0.6446
    3ALA    HB2   23  10.171   7.549  10.997  0.1020  0.7001  1.2720
    3ALA    HB3   24  10.117   7.657  10.859  0.3626 -1.9896 -1.1801
    3ALA      C   25   9.945   7.451  10.854  0.5623 -0.0181  0.3492
    3ALA      O   26   9.973   7.474  10.734  0.2863 -0.2618 -0.8390
    4NME      N   27   9.930   7.324  10.899  0.4456 -0.2591  0.3959
    4NME      H   28   9.918   7.326  10.999  0.9464  0.2235  0.4473
    4NME    CH3   29   9.930   7.202  10.827  0.6763 -0.2758  0.6300
    4NME   HH31   30   9.857   7.133  10.869 -0.1052  0.8994  1.2580
    4NME   HH32   31   9.908   7.206  10.720  0.6247 -0.0142  0.6518
    4NME   HH33   32  10.025   7.155  10.853  1.0805  0.4673  0.5493
  20.99041  20.99041  20.99041
