Protein
   42
    1ACE   HH31    1   6.692   2.857  12.201 -0.2948 -0.2191 -2.3424
    1ACE    CH3    2   6.613   2.922  12.238  0.3277 -1.0078  0.6116
    1ACE   HH32    3   6.599   2.926  12.346  0.9378  0.6713  0.6535
    1ACE   HH33    4   6.519   2.896  12.189 -0.7299  0.0116  1.9768
    1ACE      C    5   6.634   3.060  12.189 -0.5344 -0.9701  0.6006
    1ACE      O    6   6.559   3.115  12.106  0.5493  0.6528 -0.6528
    2ALA      N    7   6.741   3.118  12.241  0.0625 -0.3216  0.2059
    2ALA      H    8   6.796   3.068  12.310  0.9246  0.6554  0.2561
    2ALA     CA    9   6.798   3.255  12.205 -0.4839 -0.2984 -0.0820
    2ALA     HA   10   6.719   3.316  12.162 -0.8938 -0.2843  0.6747
    2ALA     CB   11   6.845   3.338  12.332 -0.0529  0.5224  0.0237
    2ALA    HB1   12   6.890   3.427  12.288  0.9131 -0.1110 -0.2856
    2ALA    HB2   13   6.769   3.363  12.406 -0.9920  0.2813 -0.8434
    2ALA    HB3   14   6.931   3.285  12.371  0.1748  1.0478  0.2554
    2ALA      C   15   6.916   3.247  12.107 -0.2159  0.0589 -0.1463
    2ALA      O   16   7.034   3.261  12.143  0.7343  0.1785 -0.4034
    3ALA      N   17   6.898   3.254  11.971  0.1460 -0.2606  0.1147
    3ALA      H   18   6.984   3.252  11.917 -0.4373 -1.4938 -0.8386
    3ALA     CA   19   6.770   3.275  11.904 -0.0547  0.6554  0.1544
    3ALA     HA   20   6.682   3.257  11.967 -0.9092  1.0745 -0.8796
    3ALA     CB   21   6.756   3.421  11.863 -0.3262 -0.2164  0.6652
    3ALA    HB1   22   6.664   3.448  11.810 -0.0577  1.3811  0.9673
    3ALA    HB2   23   6.752   3.492  11.946  1.0821  0.1186  0.4740
    3ALA    HB3   24   6.843   3.449  11.803 -1.4427  0.5314 -0.6843
    3ALA      C   25   6.749   3.168  11.787 -0.0515 -0.6892 -0.1433
    3ALA      O   26   6.802   3.184  11.678 -0.0441 -0.2127  0.1988
    4ALA      N   27   6.653   3.077  11.805  0.2549  0.0015  0.3710
    4ALA      H   28   6.604   3.077  11.894  0.4362 -1.7418  0.4968
    4ALA     CA   29   6.605   2.981  11.694 -0.2257 -0.2207  0.4852
    4ALA     HA   30   6.693   2.969  11.631  0.9364 -0.4236  2.0737
    4ALA     CB   31   6.575   2.844  11.757 -0.1435  1.2238  0.2533
    4ALA    HB1   32   6.507   2.859  11.841 -1.7211  2.3058 -1.1306
    4ALA    HB2   33   6.538   2.781  11.676  0.5328 -0.4115  1.1789
    4ALA    HB3   34   6.673   2.802  11.780 -0.3085  1.5956  1.6955
    4ALA      C   35   6.486   3.030  11.599 -0.1672  0.1352 -0.1595
    4ALA      O   36   6.395   2.952  11.551 -0.5084 -0.2459 -0.6041
    5NME      N   37   6.472   3.159  11.572 -0.3566 -0.2330  0.4461
    5NME      H   38   6.546   3.225  11.587  0.2121 -0.2129 -2.1247
    5NME    CH3   39   6.351   3.217  11.508 -1.2064 -0.3227 -0.6790
    5NME   HH31   40   6.343   3.325  11.518  0.4774  0.0255 -2.2924
    5NME   HH32   41   6.348   3.205  11.399  1.8087 -0.3335 -0.8271
    5NME   HH33   42   6.261   3.163  11.537  0.3123 -3.1976 -0.9249
  20.91516  20.91516  20.91516
