Protein
   22
    1ACE   HH31    1   3.054   8.534   5.001 -0.2829 -1.9048 -2.4330
    1ACE    CH3    2   2.971   8.478   5.043 -0.1504  0.1624  0.9450
    1ACE   HH32    3   2.880   8.510   4.991  0.6549  0.8497 -0.1175
    1ACE   HH33    4   2.953   8.484   5.150  1.1078 -2.1483  1.3795
    1ACE      C    5   3.000   8.337   5.022  0.8477 -0.1186  0.1038
    1ACE      O    6   3.110   8.308   4.996 -0.0880 -0.0402  0.8316
    2ALA      N    7   2.890   8.262   5.033  0.3050 -0.2291 -0.3349
    2ALA      H    8   2.803   8.312   5.043  0.5784  0.2306 -0.2402
    2ALA     CA    9   2.873   8.122   4.982 -0.3650 -0.8755  0.0511
    2ALA     HA   10   2.974   8.083   4.995  0.4357  1.9177  3.8481
    2ALA     CB   11   2.771   8.050   5.069 -0.4698  0.0167  0.1892
    2ALA    HB1   12   2.674   8.097   5.055 -0.0317  0.8236 -0.1938
    2ALA    HB2   13   2.761   7.945   5.041 -1.0672  0.0535  0.2455
    2ALA    HB3   14   2.797   8.061   5.175 -0.9413 -3.2532  0.7618
    2ALA      C   15   2.857   8.109   4.830  0.1462  0.0440 -0.3586
    2ALA      O   16   2.950   8.145   4.757  0.3099  0.0451  0.5827
    3NME      N   17   2.736   8.063   4.780 -0.1088  0.6554 -0.3687
    3NME      H   18   2.663   8.060   4.850 -0.0105 -0.6887 -0.2973
    3NME    CH3   19   2.714   8.015   4.644  0.6104  0.2842 -0.3796
    3NME   HH31   20   2.761   7.918   4.624  2.0826  0.6844  0.9284
    3NME   HH32   21   2.607   7.995   4.636  0.7127 -0.1300 -0.8074
    3NME   HH33   22   2.752   8.094   4.579 -1.1540  1.7551  0.3010
  10.72160  10.72160  10.72160
