Protein
   32
    1ACE   HH31    1  10.838  12.125   6.401 -1.3195 -2.0409 -1.0049
    1ACE    CH3    2  10.903  12.098   6.317  0.0631 -1.1797 -0.2577
    1ACE   HH32    3  10.846  12.097   6.224  0.8960 -0.5241 -0.8029
    1ACE   HH33    4  10.952  12.005   6.345  0.5363 -0.8242  0.1149
    1ACE      C    5  11.017  12.198   6.295  0.5507  1.0277  0.0462
    1ACE      O    6  11.113  12.191   6.368  0.1774 -0.2722 -0.2386
    2ALA      N    7  11.010  12.284   6.190 -0.3533  0.1319 -0.5655
    2ALA      H    8  10.934  12.280   6.124  1.1067 -0.6321 -2.2584
    2ALA     CA    9  11.088  12.410   6.176 -0.1723 -0.1076  0.4622
    2ALA     HA   10  11.195  12.394   6.184 -0.3167 -0.8229  1.1910
    2ALA     CB   11  11.058  12.448   6.031  1.3699  0.3068 -0.0566
    2ALA    HB1   12  11.106  12.542   6.002  2.2017 -0.2762 -0.6378
    2ALA    HB2   13  11.088  12.361   5.973  1.6846 -0.4489  1.1839
    2ALA    HB3   14  10.953  12.469   6.013  1.5683 -0.4384 -2.3698
    2ALA      C   15  11.057  12.513   6.289 -0.1378  0.4052  0.2150
    2ALA      O   16  11.022  12.627   6.254  0.6486  0.2288  0.1857
    3ALA      N   17  11.072  12.483   6.421 -0.7132 -0.2880  0.6833
    3ALA      H   18  11.111  12.391   6.435  2.1388  0.8209  0.6659
    3ALA     CA   19  11.071  12.563   6.543  0.1065 -0.2143 -0.0941
    3ALA     HA   20  11.098  12.664   6.510 -2.0376 -0.0555 -1.5103
    3ALA     CB   21  10.926  12.559   6.585  0.5234 -0.2046 -0.0606
    3ALA    HB1   22  10.918  12.634   6.663  3.7385 -0.4746  0.6304
    3ALA    HB2   23  10.860  12.576   6.499  0.3634  1.1579  0.2983
    3ALA    HB3   24  10.905  12.463   6.634 -1.5952  0.0271 -0.3904
    3ALA      C   25  11.169  12.524   6.665  0.1047 -0.0516  0.4647
    3ALA      O   26  11.268  12.456   6.635  0.1172  0.0801 -0.4534
    4NME      N   27  11.142  12.568   6.792 -0.2318 -0.4542  0.2232
    4NME      H   28  11.054  12.615   6.809  0.6180  1.6546 -0.7935
    4NME    CH3   29  11.243  12.581   6.901  0.2622  0.1717  0.1507
    4NME   HH31   30  11.195  12.592   6.998 -0.6821 -0.8079 -0.1786
    4NME   HH32   31  11.307  12.495   6.885 -0.4472 -0.5092  0.8682
    4NME   HH33   32  11.298  12.674   6.888 -1.9838  1.7714  1.4995
  20.99041  20.99041  20.99041
