Protein
   32
    1ACE   HH31    1   8.693  11.490  16.266  1.6422 -1.0041  0.3828
    1ACE    CH3    2   8.701  11.595  16.235  0.5241 -1.0664 -0.1676
    1ACE   HH32    3   8.630  11.662  16.284 -2.0522 -2.7498 -1.3686
    1ACE   HH33    4   8.677  11.603  16.130 -0.1274  0.4917  0.0761
    1ACE      C    5   8.839  11.640  16.274  0.3736  0.1944  0.1400
    1ACE      O    6   8.860  11.702  16.377 -0.2182  0.0606  0.6903
    2ALA      N    7   8.938  11.604  16.190 -0.0611  0.3214  0.5685
    2ALA      H    8   8.916  11.531  16.124 -2.3127  2.4086 -1.1623
    2ALA     CA    9   9.083  11.636  16.196 -0.5580 -0.0199  0.4074
    2ALA     HA   10   9.126  11.542  16.233 -2.6031 -0.8077  0.9202
    2ALA     CB   11   9.152  11.662  16.058 -0.8014 -0.4607 -0.0426
    2ALA    HB1   12   9.252  11.700  16.078 -1.4723  1.8189 -0.8560
    2ALA    HB2   13   9.173  11.575  15.996 -0.4825 -0.0245 -0.5541
    2ALA    HB3   14   9.099  11.732  15.994 -0.3604 -0.4324 -0.3759
    2ALA      C   15   9.141  11.744  16.291  0.3473 -0.2000 -0.0585
    2ALA      O   16   9.214  11.705  16.380  0.3403 -0.2622 -0.1949
    3ALA      N   17   9.104  11.871  16.277 -0.6616 -0.0065  0.0435
    3ALA      H   18   9.039  11.890  16.202  1.0780 -0.9534 -1.7956
    3ALA     CA   19   9.158  11.992  16.334 -0.2845  0.0891 -0.7633
    3ALA     HA   20   9.188  11.967  16.436  0.8060  3.2817 -0.1751
    3ALA     CB   21   9.281  12.046  16.248  0.8893 -0.1328 -0.7185
    3ALA    HB1   22   9.309  12.145  16.285 -3.0071  0.4619  1.2167
    3ALA    HB2   23   9.361  11.973  16.234  0.0856 -1.2877  0.4756
    3ALA    HB3   24   9.245  12.063  16.146 -1.0134 -0.5843 -0.1420
    3ALA      C   25   9.052  12.103  16.346  0.5847 -0.1571 -0.6945
    3ALA      O   26   8.984  12.127  16.249  0.5456  0.2979 -0.2924
    4NME      N   27   9.037  12.171  16.461  0.8651 -0.0942  0.0993
    4NME      H   28   9.105  12.145  16.531  0.9376 -0.8581 -0.2349
    4NME    CH3   29   8.928  12.268  16.495 -0.2763  0.0101 -0.2494
    4NME   HH31   30   8.904  12.262  16.601  1.9362 -0.9521  0.2600
    4NME   HH32   31   8.945  12.374  16.480  0.2725  0.2029  1.4953
    4NME   HH33   32   8.843  12.230  16.438  0.6594 -0.8266 -1.1229
  20.99041  20.99041  20.99041
