Protein
   32
    1ACE   HH31    1  10.842   9.411   7.512  1.4620  1.1724  1.5316
    1ACE    CH3    2  10.868   9.472   7.426 -0.3023 -0.5241 -0.2967
    1ACE   HH32    3  10.966   9.518   7.440 -0.8476  0.5341  0.1348
    1ACE   HH33    4  10.799   9.556   7.422  0.5416  0.1847 -0.1743
    1ACE      C    5  10.860   9.394   7.295 -0.2615 -0.5585  0.9534
    1ACE      O    6  10.767   9.409   7.214 -0.1608  0.0822  0.0682
    2ALA      N    7  10.948   9.297   7.278 -0.3144 -0.8860  0.4403
    2ALA      H    8  11.019   9.279   7.347  1.5236  1.2377 -0.7483
    2ALA     CA    9  10.977   9.245   7.142  0.0289 -1.0450 -0.3948
    2ALA     HA   10  10.941   9.311   7.064  0.3410 -0.5658 -0.1392
    2ALA     CB   11  11.126   9.232   7.150  0.0459 -0.3305 -0.5494
    2ALA    HB1   12  11.179   9.327   7.157 -0.2741 -0.2351  0.6889
    2ALA    HB2   13  11.152   9.164   7.231  1.0544 -0.7768 -1.2201
    2ALA    HB3   14  11.151   9.187   7.053 -1.7032  0.2333 -1.3022
    2ALA      C   15  10.908   9.109   7.119 -0.3505 -0.1560  0.3079
    2ALA      O   16  10.975   9.009   7.084 -0.3147  0.0201  0.0326
    3ALA      N   17  10.770   9.110   7.124 -0.3769 -0.2346  0.3894
    3ALA      H   18  10.734   9.202   7.145 -0.1582 -0.3668  1.4056
    3ALA     CA   19  10.678   9.009   7.071  0.2198 -0.1511 -0.2411
    3ALA     HA   20  10.693   8.924   7.138 -0.7283  0.2700  0.5393
    3ALA     CB   21  10.539   9.062   7.090  0.2274 -0.2978  1.0738
    3ALA    HB1   22  10.531   9.154   7.032 -0.3337 -1.3385 -0.5704
    3ALA    HB2   23  10.459   8.996   7.057 -0.4619  0.2805  1.5426
    3ALA    HB3   24  10.531   9.080   7.198  0.9499  3.2570  0.6609
    3ALA      C   25  10.703   8.957   6.927 -0.6176 -0.4059  0.0888
    3ALA      O   26  10.628   8.972   6.830  0.8945 -0.4100 -0.9429
    4NME      N   27  10.804   8.871   6.917 -0.5087 -0.7918  0.2273
    4NME      H   28  10.858   8.861   7.002  3.1327  0.7218 -1.7028
    4NME    CH3   29  10.848   8.805   6.797 -0.5092 -0.4114 -0.3721
    4NME   HH31   30  10.948   8.845   6.780 -0.6645 -0.8119 -2.5017
    4NME   HH32   31  10.865   8.700   6.820  0.7757 -0.0904  0.2072
    4NME   HH33   32  10.781   8.834   6.716  0.8092  0.8753 -1.0583
  20.99041  20.99041  20.99041
