Protein
   42
    1ACE   HH31    1  15.736  13.907   7.417 -1.6607  0.6631  0.5948
    1ACE    CH3    2  15.797  13.980   7.469  0.5743 -0.6724 -0.0145
    1ACE   HH32    3  15.898  13.962   7.432  0.4972 -0.8052 -0.1598
    1ACE   HH33    4  15.793  13.973   7.577 -1.8170  0.2845  0.0272
    1ACE      C    5  15.763  14.119   7.427  0.2028  0.0996 -0.4312
    1ACE      O    6  15.836  14.169   7.344 -0.0797 -0.2536  0.4819
    2ALA      N    7  15.664  14.184   7.489  0.5886  0.2284  0.3863
    2ALA      H    8  15.619  14.128   7.560  1.4323 -1.2520 -0.1925
    2ALA     CA    9  15.598  14.311   7.441 -1.1119  0.2250 -0.2170
    2ALA     HA   10  15.673  14.378   7.398 -0.6033 -0.9663 -1.2243
    2ALA     CB   11  15.501  14.269   7.334  0.3913 -0.2353  0.5319
    2ALA    HB1   12  15.552  14.222   7.250 -0.0879  2.4027 -1.3865
    2ALA    HB2   13  15.427  14.202   7.377 -1.4985  1.9963  0.9444
    2ALA    HB3   14  15.456  14.360   7.294 -0.3876 -1.1527 -0.7344
    2ALA      C   15  15.525  14.381   7.556 -0.7008  0.3179 -0.6510
    2ALA      O   16  15.479  14.315   7.645  0.0314  0.2129 -0.5813
    3ALA      N   17  15.525  14.518   7.561  0.3500  0.0449 -0.3105
    3ALA      H   18  15.575  14.566   7.488 -0.8827  0.0079 -1.2055
    3ALA     CA   19  15.441  14.596   7.657  0.3127 -0.0861  0.7008
    3ALA     HA   20  15.453  14.698   7.621  0.0912 -0.4964 -0.5737
    3ALA     CB   21  15.293  14.560   7.644  1.0524 -0.3932 -0.5280
    3ALA    HB1   22  15.235  14.638   7.695  0.5088 -1.1585  0.0306
    3ALA    HB2   23  15.271  14.557   7.537  2.1106 -2.6216 -0.7411
    3ALA    HB3   24  15.267  14.461   7.681 -0.5286 -0.2938 -1.2768
    3ALA      C   25  15.491  14.605   7.803  0.0700 -0.1979  0.2613
    3ALA      O   26  15.538  14.715   7.836 -0.5154  0.4108  0.3199
    4ALA      N   27  15.502  14.492   7.878 -0.1944 -0.3782  0.2548
    4ALA      H   28  15.470  14.411   7.827  1.3852 -1.0495  0.2310
    4ALA     CA   29  15.559  14.467   8.015 -0.2551  0.1767  0.3113
    4ALA     HA   30  15.547  14.362   8.044  1.7610 -0.6407 -1.5415
    4ALA     CB   31  15.712  14.496   7.990 -0.5351  0.3683 -0.7695
    4ALA    HB1   32  15.785  14.478   8.068  0.6414  0.7672 -1.7405
    4ALA    HB2   33  15.740  14.432   7.907  1.0681  1.2471 -0.9505
    4ALA    HB3   34  15.726  14.602   7.970 -0.4424  1.0922  2.5275
    4ALA      C   35  15.508  14.559   8.126 -0.4303 -0.1266  0.0890
    4ALA      O   36  15.539  14.523   8.240  0.0498  0.4566  0.3079
    5NME      N   37  15.450  14.679   8.099 -0.4541  0.4465 -0.3331
    5NME      H   38  15.454  14.712   8.003  0.7825 -0.2480 -0.5421
    5NME    CH3   39  15.422  14.784   8.195  0.2790 -0.0328  0.0688
    5NME   HH31   40  15.321  14.824   8.192  0.9279  1.8493 -4.5370
    5NME   HH32   41  15.441  14.745   8.295  1.9220  2.0105  0.6383
    5NME   HH33   42  15.495  14.863   8.177  0.4718 -0.2411 -0.0484
  20.91516  20.91516  20.91516
