Protein
   42
    1ACE   HH31    1  10.411   9.580   9.740  0.0061  0.5831  0.5704
    1ACE    CH3    2  10.490   9.535   9.799  0.3983 -0.3450 -0.5978
    1ACE   HH32    3  10.452   9.442   9.841 -0.6851 -0.7157 -2.2922
    1ACE   HH33    4  10.519   9.614   9.868 -1.0001  1.1606 -1.6548
    1ACE      C    5  10.589   9.501   9.692  0.9321  0.9783 -0.3516
    1ACE      O    6  10.548   9.471   9.578 -0.2270 -0.0304 -0.6029
    2ALA      N    7  10.718   9.514   9.725  0.1479 -0.3034 -0.3311
    2ALA      H    8  10.738   9.527   9.823  0.6111 -1.3503 -0.2625
    2ALA     CA    9  10.830   9.488   9.637 -0.0155  0.0288 -0.0140
    2ALA     HA   10  10.830   9.575   9.571 -0.2703  0.7453  0.9207
    2ALA     CB   11  10.959   9.495   9.723 -0.4043  0.1363 -0.0456
    2ALA    HB1   12  11.044   9.482   9.656 -1.0253 -1.4489 -0.5705
    2ALA    HB2   13  10.962   9.586   9.783  2.7048  0.9863 -1.2968
    2ALA    HB3   14  10.959   9.415   9.797 -0.2695  0.4822  0.3404
    2ALA      C   15  10.815   9.365   9.551 -0.4631  0.2208  0.0649
    2ALA      O   16  10.847   9.259   9.603 -0.1837  0.0303  0.3892
    3ALA      N   17  10.793   9.358   9.423  0.3354 -0.2620 -0.5030
    3ALA      H   18  10.796   9.267   9.381 -3.1379 -1.5021  1.5863
    3ALA     CA   19  10.759   9.468   9.330 -0.1403  0.3535  0.0105
    3ALA     HA   20  10.752   9.569   9.371  0.0729  1.1687 -1.8220
    3ALA     CB   21  10.877   9.482   9.234 -0.7376  0.7532  0.4224
    3ALA    HB1   22  10.879   9.586   9.200 -1.7620  0.5706 -0.2454
    3ALA    HB2   23  10.978   9.465   9.271  0.3247 -1.0259 -2.8287
    3ALA    HB3   24  10.866   9.424   9.142 -0.3255  0.7475  0.3736
    3ALA      C   25  10.621   9.448   9.258 -0.2328 -0.1881  0.4602
    3ALA      O   26  10.604   9.519   9.159  0.5386  0.1972 -0.2409
    4ALA      N   27  10.523   9.380   9.315 -0.0140  0.4448 -1.0272
    4ALA      H   28  10.543   9.333   9.402  0.1573  0.1865 -1.2068
    4ALA     CA   29  10.388   9.334   9.271 -0.1988 -0.0270 -0.0460
    4ALA     HA   30  10.324   9.421   9.282 -0.3611  0.5576 -4.1430
    4ALA     CB   31  10.390   9.290   9.124  0.0200  0.2593  0.1543
    4ALA    HB1   32  10.474   9.223   9.108 -1.2235 -0.9673 -1.6131
    4ALA    HB2   33  10.289   9.261   9.092 -1.3575  0.5478  3.8519
    4ALA    HB3   34  10.405   9.372   9.054  0.3937  0.5890  0.6190
    4ALA      C   35  10.342   9.222   9.374  0.2431 -0.4087 -0.2584
    4ALA      O   36  10.428   9.150   9.423  0.1630  0.5031 -0.0743
    5NME      N   37  10.206   9.216   9.409 -0.2987  0.2760 -0.6671
    5NME      H   38  10.138   9.269   9.356 -1.9257 -1.1704 -0.1147
    5NME    CH3   39  10.157   9.136   9.520 -0.8893  0.3876 -0.0333
    5NME   HH31   40  10.070   9.180   9.569 -0.0463  0.4260  1.5009
    5NME   HH32   41  10.131   9.037   9.483  1.6061 -0.3126 -0.0549
    5NME   HH33   42  10.238   9.131   9.593 -0.4906  1.0418 -0.4063
  20.91516  20.91516  20.91516
