Protein
   42
    1ACE   HH31    1  15.155   9.157   4.356 -0.2444  0.7579  0.2517
    1ACE    CH3    2  15.171   9.111   4.454  0.3355  0.3388 -0.0329
    1ACE   HH32    3  15.075   9.125   4.504  0.2826  1.1274 -0.3350
    1ACE   HH33    4  15.253   9.157   4.508  0.8772 -1.0807  0.3833
    1ACE      C    5  15.200   8.962   4.450  0.0767 -0.0383  0.5845
    1ACE      O    6  15.298   8.928   4.502 -0.9384  0.8701  0.1988
    2ALA      N    7  15.117   8.872   4.399 -0.2873  0.2134  0.8861
    2ALA      H    8  15.034   8.901   4.349  1.1247  0.6519 -1.2862
    2ALA     CA    9  15.126   8.733   4.421 -0.3917  0.1133  0.0838
    2ALA     HA   10  15.155   8.724   4.526  3.8364  2.1355 -0.6889
    2ALA     CB   11  14.983   8.686   4.412 -0.2939  0.6268  0.0822
    2ALA    HB1   12  14.986   8.578   4.424 -0.4119  0.6346  0.1907
    2ALA    HB2   13  14.917   8.734   4.484  0.2057  2.8469 -0.8498
    2ALA    HB3   14  14.948   8.711   4.311 -1.3737 -1.5264 -0.1272
    2ALA      C   15  15.223   8.657   4.339 -0.4840 -0.2629 -0.1230
    2ALA      O   16  15.186   8.586   4.242 -0.0329  0.0525  0.1775
    3ALA      N   17  15.352   8.663   4.370  0.5714  0.1295 -0.4264
    3ALA      H   18  15.369   8.726   4.447 -0.2797  1.0382 -0.9791
    3ALA     CA   19  15.465   8.568   4.341 -0.1257  0.2431  0.3270
    3ALA     HA   20  15.502   8.602   4.244 -0.3478 -2.4890 -0.7742
    3ALA     CB   21  15.573   8.593   4.444 -0.6237 -0.0751 -0.3628
    3ALA    HB1   22  15.543   8.578   4.547  1.2295  2.9216  0.7174
    3ALA    HB2   23  15.662   8.538   4.414 -1.1661 -1.2947  0.1971
    3ALA    HB3   24  15.603   8.698   4.447 -0.5798 -0.0623 -1.1079
    3ALA      C   25  15.429   8.416   4.334 -0.3715 -0.2176 -0.2276
    3ALA      O   26  15.404   8.349   4.431  0.0995  0.4869 -0.2568
    4ALA      N   27  15.423   8.365   4.210 -0.3237  0.1108  0.6200
    4ALA      H   28  15.443   8.429   4.135  1.9682  0.6626  1.6074
    4ALA     CA   29  15.390   8.221   4.187 -0.1910 -0.1513  0.2022
    4ALA     HA   30  15.318   8.187   4.261 -0.8565 -1.9091 -1.1889
    4ALA     CB   31  15.343   8.199   4.044 -0.6064 -0.0543  0.4694
    4ALA    HB1   32  15.315   8.093   4.037 -0.3782 -0.1172  0.4993
    4ALA    HB2   33  15.255   8.260   4.023 -0.6832  0.1851  1.4960
    4ALA    HB3   34  15.422   8.223   3.972 -0.8407 -1.0874 -0.1637
    4ALA      C   35  15.521   8.141   4.230  0.2716 -0.3382 -0.4506
    4ALA      O   36  15.635   8.155   4.175  0.1225 -0.1225  0.2943
    5NME      N   37  15.506   8.057   4.338 -0.7772 -1.1178  0.3839
    5NME      H   38  15.420   8.057   4.391 -1.0069  0.4177  0.0463
    5NME    CH3   39  15.610   7.968   4.390  0.5701  0.1329 -0.4758
    5NME   HH31   40  15.687   8.029   4.437  1.3323 -0.6378 -0.6997
    5NME   HH32   41  15.563   7.898   4.459 -1.1459  1.0104 -0.6888
    5NME   HH33   42  15.653   7.918   4.303  2.1508 -0.0206  0.3449
  20.91516  20.91516  20.91516
