Protein
   42
    1ACE   HH31    1  13.845  12.716   6.702 -0.2044  0.0368  0.2506
    1ACE    CH3    2  13.908  12.706   6.613 -0.9773  0.6981 -0.3976
    1ACE   HH32    3  13.954  12.799   6.581 -0.8899  1.5325  1.9364
    1ACE   HH33    4  13.845  12.656   6.540 -0.7882 -0.7980  0.4026
    1ACE      C    5  14.026  12.618   6.647 -0.1575 -0.1281  0.7636
    1ACE      O    6  14.094  12.580   6.553  0.0245 -0.5589 -0.3355
    2ALA      N    7  14.053  12.572   6.768  0.4686  0.4691  0.4999
    2ALA      H    8  13.979  12.596   6.832  1.2124  1.5130  1.0101
    2ALA     CA    9  14.142  12.458   6.783 -0.3503 -0.4014 -0.1967
    2ALA     HA   10  14.233  12.491   6.733 -1.1396  3.2364  0.5208
    2ALA     CB   11  14.172  12.424   6.932 -0.1992  0.0253  0.6496
    2ALA    HB1   12  14.222  12.506   6.983 -1.6424 -0.0463  2.3031
    2ALA    HB2   13  14.083  12.401   6.989 -0.1346 -1.5944  0.1677
    2ALA    HB3   14  14.236  12.335   6.934  1.7228  1.3202 -0.2899
    2ALA      C   15  14.088  12.332   6.713 -0.0283  1.0148  0.3177
    2ALA      O   16  13.972  12.296   6.725 -0.8216  0.5255 -0.0635
    3ALA      N   17  14.179  12.246   6.650 -0.0499  0.2722  0.2272
    3ALA      H   18  14.130  12.161   6.623  1.3520 -0.8290  0.9789
    3ALA     CA   19  14.329  12.260   6.634  0.7589  0.3440 -0.1809
    3ALA     HA   20  14.364  12.338   6.701  0.5708 -0.4834  0.8917
    3ALA     CB   21  14.399  12.131   6.686 -0.8060  0.2510 -0.0591
    3ALA    HB1   22  14.359  12.103   6.783  1.0075 -0.3018  0.5589
    3ALA    HB2   23  14.380  12.045   6.621 -1.2562  0.2133  0.1094
    3ALA    HB3   24  14.504  12.152   6.708 -0.9355  0.4491  0.3652
    3ALA      C   25  14.374  12.297   6.490  0.4030 -0.7310  0.7745
    3ALA      O   26  14.445  12.224   6.424  0.5217 -0.0045 -0.2604
    4ALA      N   27  14.317  12.417   6.445 -0.4499  0.8339  0.0675
    4ALA      H   28  14.250  12.466   6.503  0.5540  0.2821  1.7688
    4ALA     CA   29  14.359  12.500   6.336  0.2874  0.6033  0.5620
    4ALA     HA   30  14.299  12.591   6.334 -0.4522  0.1413 -1.5477
    4ALA     CB   31  14.498  12.555   6.358  0.0140 -0.1118 -0.2452
    4ALA    HB1   32  14.575  12.478   6.359  0.3157  0.1882  1.4421
    4ALA    HB2   33  14.523  12.632   6.284  1.7201  0.9079  1.3035
    4ALA    HB3   34  14.502  12.607   6.454  0.0990 -2.1145  0.8799
    4ALA      C   35  14.331  12.452   6.192  0.7156  0.0218 -0.2287
    4ALA      O   36  14.266  12.525   6.118  0.0271  0.4883  0.6711
    5NME      N   37  14.383  12.335   6.154  0.4815 -0.4214 -0.3108
    5NME      H   38  14.438  12.278   6.216 -0.1426 -1.7314 -0.9176
    5NME    CH3   39  14.388  12.296   6.012  0.9392  0.1820 -0.0162
    5NME   HH31   40  14.418  12.374   5.942 -2.0284  1.5552  0.1138
    5NME   HH32   41  14.446  12.204   5.998  0.5163 -0.2937  1.2686
    5NME   HH33   42  14.286  12.282   5.977  0.8898  0.8348 -0.1440
  20.91516  20.91516  20.91516
