Protein
   22
    1ACE   HH31    1   5.981   2.411   7.594 -1.6045  1.6189 -1.6068
    1ACE    CH3    2   6.073   2.462   7.565 -0.0239 -0.1739  0.0819
    1ACE   HH32    3   6.058   2.490   7.461  0.9291  0.5393  0.1263
    1ACE   HH33    4   6.156   2.391   7.562  0.4239  0.3237  0.6323
    1ACE      C    5   6.103   2.582   7.660 -0.7667 -0.0854 -0.5412
    1ACE      O    6   6.175   2.583   7.760 -0.2432  0.3222  0.1151
    2ALA      N    7   6.046   2.692   7.620 -0.4835 -0.2141  0.0072
    2ALA      H    8   5.977   2.687   7.546 -1.2913 -1.6411  0.8205
    2ALA     CA    9   6.097   2.823   7.665  0.0022  0.1180 -0.3488
    2ALA     HA   10   6.205   2.816   7.683  0.2513 -0.4312 -1.8952
    2ALA     CB   11   6.070   2.924   7.555 -0.4455  1.1091  0.8652
    2ALA    HB1   12   6.131   2.898   7.468  1.6040  2.4190  1.8477
    2ALA    HB2   13   5.964   2.929   7.526 -0.2061  1.4732  0.0117
    2ALA    HB3   14   6.107   3.022   7.584 -0.9142  1.3614  0.6495
    2ALA      C   15   6.029   2.860   7.798 -0.0941 -0.2709  0.0474
    2ALA      O   16   6.091   2.946   7.868  0.2791  0.4502  0.6990
    3NME      N   17   5.906   2.821   7.826  0.2043 -0.0850  0.0803
    3NME      H   18   5.860   2.765   7.755 -1.2382 -1.0016  1.6813
    3NME    CH3   19   5.823   2.869   7.936  0.1864 -0.8845 -0.4053
    3NME   HH31   20   5.715   2.856   7.932 -0.1247 -0.2051  2.8053
    3NME   HH32   21   5.861   2.832   8.032  0.7723  2.2451  0.7149
    3NME   HH33   22   5.844   2.976   7.941 -1.2449 -0.5276 -1.4022
  10.72160  10.72160  10.72160
