Protein
   42
    1ACE   HH31    1  11.758   8.422   3.521  1.3538 -1.4733 -0.5830
    1ACE    CH3    2  11.795   8.489   3.599 -0.9392 -0.4713 -0.2790
    1ACE   HH32    3  11.901   8.475   3.582 -1.3393 -1.4961 -2.2280
    1ACE   HH33    4  11.762   8.454   3.696  1.4143 -1.1989  0.2972
    1ACE      C    5  11.747   8.622   3.560  0.3440 -0.6539 -0.0050
    1ACE      O    6  11.821   8.718   3.543  0.1587  0.0068 -0.1977
    2ALA      N    7  11.618   8.633   3.550  0.2184  0.4463 -0.2218
    2ALA      H    8  11.566   8.546   3.553  0.1981  0.3607 -1.9315
    2ALA     CA    9  11.549   8.758   3.529  0.4184 -0.2940 -0.1668
    2ALA     HA   10  11.614   8.843   3.553  0.6498 -0.1132 -1.3730
    2ALA     CB   11  11.531   8.774   3.381  0.2192  0.0569 -0.1839
    2ALA    HB1   12  11.475   8.864   3.357  2.3172  1.3732 -0.4583
    2ALA    HB2   13  11.634   8.786   3.347  1.4102  0.7746  3.3024
    2ALA    HB3   14  11.488   8.686   3.335  1.4527 -1.0853  0.7549
    2ALA      C   15  11.417   8.773   3.624 -0.3150  0.1547 -0.5142
    2ALA      O   16  11.393   8.673   3.687  0.3590 -0.0949 -0.3175
    3ALA      N   17  11.337   8.881   3.626 -0.5006  0.2961  0.0428
    3ALA      H   18  11.242   8.859   3.654 -0.4202  1.7397  1.5740
    3ALA     CA   19  11.367   9.025   3.619 -0.7706  0.7824 -0.3597
    3ALA     HA   20  11.303   9.060   3.700  0.3809 -1.3646  1.5945
    3ALA     CB   21  11.516   9.059   3.652  0.1555  0.2225 -0.1952
    3ALA    HB1   22  11.520   9.165   3.681  0.5752  0.0023  0.6313
    3ALA    HB2   23  11.549   8.998   3.736 -0.9439  2.0569  1.6738
    3ALA    HB3   24  11.584   9.043   3.568  1.7374 -0.3928  1.1382
    3ALA      C   25  11.308   9.086   3.489 -0.4992  0.1054  0.1459
    3ALA      O   26  11.286   9.020   3.387  0.0956 -0.2735 -0.0396
    4ALA      N   27  11.274   9.217   3.488  0.2193 -0.1645 -0.3197
    4ALA      H   28  11.301   9.263   3.575  0.7403  0.9249 -1.0312
    4ALA     CA   29  11.240   9.308   3.372 -1.0732  0.1458 -0.2606
    4ALA     HA   30  11.287   9.405   3.391  0.8682 -0.7138 -0.4567
    4ALA     CB   31  11.306   9.255   3.245 -0.6627  0.3930  0.3265
    4ALA    HB1   32  11.401   9.205   3.264 -0.4221 -0.2026 -2.0983
    4ALA    HB2   33  11.238   9.180   3.203  1.3476 -1.4996  0.3085
    4ALA    HB3   34  11.312   9.337   3.174  0.3031  0.3206  0.3106
    4ALA      C   35  11.092   9.346   3.371 -0.3002  0.5635 -0.6675
    4ALA      O   36  11.055   9.461   3.374 -0.1805 -0.7331 -0.3171
    5NME      N   37  11.017   9.239   3.375 -0.0125 -0.0167  0.4234
    5NME      H   38  11.072   9.155   3.369  0.3644  0.3355 -2.6262
    5NME    CH3   39  10.872   9.240   3.359  0.0430  0.0842 -0.3930
    5NME   HH31   40  10.861   9.314   3.280  4.4067 -0.4552 -1.8303
    5NME   HH32   41  10.839   9.139   3.331  1.0261 -0.4346  0.2688
    5NME   HH33   42  10.817   9.262   3.450 -0.9116  1.1376 -1.2024
  20.91516  20.91516  20.91516
