Protein
   32
    1ACE   HH31    1  12.451  18.087   7.368  0.1957 -1.3307 -0.5076
    1ACE    CH3    2  12.495  18.094   7.467 -0.1457 -0.1391 -0.4213
    1ACE   HH32    3  12.477  18.190   7.514  0.9829  0.7850 -1.8238
    1ACE   HH33    4  12.602  18.079   7.452  0.4825  2.7339  0.5850
    1ACE      C    5  12.446  17.986   7.556 -0.9530  0.0428 -0.5679
    1ACE      O    6  12.410  18.019   7.672  0.3651 -0.0033 -0.0656
    2ALA      N    7  12.449  17.872   7.493 -0.6229 -0.1015 -0.5696
    2ALA      H    8  12.478  17.870   7.396  2.5764 -1.1741  0.3109
    2ALA     CA    9  12.413  17.741   7.554 -0.1799  0.1708  0.1210
    2ALA     HA   10  12.469  17.727   7.646 -0.4811  0.0288  0.2827
    2ALA     CB   11  12.260  17.737   7.586 -1.0493  0.1759  0.3654
    2ALA    HB1   12  12.231  17.637   7.618  2.2376 -0.6000  1.3504
    2ALA    HB2   13  12.240  17.806   7.668  0.3968  0.1176  0.8005
    2ALA    HB3   14  12.201  17.767   7.500 -3.3448 -1.3912  1.3279
    2ALA      C   15  12.454  17.624   7.468  0.0558 -0.3220 -0.1422
    2ALA      O   16  12.506  17.654   7.363  0.0915  0.6450 -0.3931
    3ALA      N   17  12.424  17.503   7.499 -0.5215  0.0297 -0.6454
    3ALA      H   18  12.363  17.491   7.579 -0.0423 -0.0583 -0.2915
    3ALA     CA   19  12.474  17.381   7.428 -0.1585 -0.3971 -0.7793
    3ALA     HA   20  12.574  17.409   7.397 -0.2202 -1.0022 -1.5451
    3ALA     CB   21  12.501  17.263   7.528  0.0695  0.3513  0.4591
    3ALA    HB1   22  12.587  17.297   7.586 -0.1042  0.4150  0.6831
    3ALA    HB2   23  12.410  17.248   7.586 -2.7166  0.5425 -3.4962
    3ALA    HB3   24  12.530  17.175   7.471  0.3677  1.2685 -0.8507
    3ALA      C   25  12.399  17.350   7.297 -0.6169  0.4803  0.5179
    3ALA      O   26  12.408  17.241   7.247 -0.7047 -0.1575 -0.2514
    4NME      N   27  12.323  17.441   7.244 -0.3632 -0.4212 -0.0365
    4NME      H   28  12.313  17.525   7.300 -0.5218 -0.5601  0.1424
    4NME    CH3   29  12.251  17.437   7.115  0.5130  0.8026 -0.5265
    4NME   HH31   30  12.275  17.528   7.060  2.3395  2.1118  2.2443
    4NME   HH32   31  12.292  17.348   7.067  1.0795 -0.5266  2.2460
    4NME   HH33   32  12.145  17.419   7.134  1.0185 -1.5286  0.4714
  20.99041  20.99041  20.99041
