Protein
   22
    1ACE   HH31    1   9.100   1.391   3.328 -1.0329  1.5150 -0.8307
    1ACE    CH3    2   9.166   1.340   3.258 -0.2121  0.0040  0.9615
    1ACE   HH32    3   9.186   1.400   3.170 -1.0434  0.3776  1.0144
    1ACE   HH33    4   9.129   1.246   3.217 -0.7748  1.0144 -0.9541
    1ACE      C    5   9.288   1.329   3.345  0.5449  0.7981 -0.5312
    1ACE      O    6   9.350   1.432   3.378 -0.2787 -0.1437  0.0434
    2ALA      N    7   9.330   1.206   3.381  0.3665 -0.2950 -0.1654
    2ALA      H    8   9.281   1.121   3.356  2.0897 -1.3658 -0.1259
    2ALA     CA    9   9.460   1.182   3.451  0.0877 -0.8667  0.2913
    2ALA     HA   10   9.503   1.282   3.453  1.1159 -1.2044 -1.9419
    2ALA     CB   11   9.427   1.103   3.588  0.5338 -0.7296  0.4373
    2ALA    HB1   12   9.362   1.022   3.554  1.6787 -0.7908 -1.8106
    2ALA    HB2   13   9.519   1.061   3.630  0.3056  1.1267  2.9387
    2ALA    HB3   14   9.375   1.175   3.650 -0.8242 -0.7185 -0.6580
    2ALA      C   15   9.549   1.101   3.348 -0.7336 -0.1578  0.1543
    2ALA      O   16   9.495   1.032   3.255  0.3435 -0.1770  0.0859
    3NME      N   17   9.682   1.123   3.359  0.7466  0.0114  0.0191
    3NME      H   18   9.710   1.189   3.430  1.3698 -0.7379  0.4929
    3NME    CH3   19   9.781   1.044   3.290 -0.1300  0.0152  0.1827
    3NME   HH31   20   9.870   1.103   3.271  0.2018 -0.8205 -0.9833
    3NME   HH32   21   9.807   0.954   3.345 -2.1611 -3.0393 -3.3433
    3NME   HH33   22   9.732   1.007   3.199 -1.6910 -1.6054  1.5864
  10.72160  10.72160  10.72160
