Protein
   32
    1ACE   HH31    1  12.619   9.372   9.027 -2.7193 -1.0366 -0.5876
    1ACE    CH3    2  12.636   9.268   9.053  0.7440 -0.5409 -0.3796
    1ACE   HH32    3  12.634   9.214   8.959  1.1150  0.3201 -0.9006
    1ACE   HH33    4  12.551   9.238   9.114  0.9203 -1.3558 -0.5167
    1ACE      C    5  12.772   9.258   9.116  0.1256  0.9058  0.4774
    1ACE      O    6  12.851   9.183   9.059 -0.0938 -0.2271  0.3336
    2ALA      N    7  12.797   9.325   9.225  0.0103 -0.8976 -0.6415
    2ALA      H    8  12.723   9.392   9.237 -1.2837 -2.5310  0.9905
    2ALA     CA    9  12.921   9.325   9.297 -0.1169 -0.4365 -0.3924
    2ALA     HA   10  12.993   9.393   9.251  1.9439 -2.7929 -0.7963
    2ALA     CB   11  12.894   9.373   9.444  0.3064 -0.2752 -0.4821
    2ALA    HB1   12  12.857   9.476   9.446 -1.6766 -0.9439  1.3219
    2ALA    HB2   13  12.820   9.315   9.500  1.0681 -0.2065  0.6248
    2ALA    HB3   14  12.988   9.380   9.498 -0.5596  0.5567  0.9714
    2ALA      C   15  12.999   9.195   9.293 -0.2139  0.2328  0.0694
    2ALA      O   16  13.116   9.193   9.255  0.0039 -0.0946 -0.2736
    3ALA      N   17  12.938   9.083   9.335  0.2923  0.1550  0.0297
    3ALA      H   18  12.841   9.089   9.363  0.0293 -2.0018 -0.2399
    3ALA     CA   19  12.988   8.944   9.336 -0.1806 -0.5492 -0.2144
    3ALA     HA   20  13.072   8.931   9.404 -0.4992 -1.5083  0.0204
    3ALA     CB   21  12.870   8.853   9.380  1.0285  0.5879  0.1439
    3ALA    HB1   22  12.794   8.852   9.302  0.6470  0.7896  0.5015
    3ALA    HB2   23  12.899   8.749   9.388 -2.6116 -0.7920 -2.2595
    3ALA    HB3   24  12.827   8.884   9.476 -1.1649 -1.4317 -0.0902
    3ALA      C   25  13.033   8.890   9.195  0.0629  0.3993 -0.2397
    3ALA      O   26  13.088   8.778   9.189  0.6078 -0.3961 -0.1988
    4NME      N   27  13.000   8.961   9.079  0.1130 -0.0246  0.4200
    4NME      H   28  12.976   9.058   9.091  1.5320  0.2274  1.5990
    4NME    CH3   29  12.980   8.906   8.944  0.3461  0.3205 -0.1368
    4NME   HH31   30  12.896   8.837   8.948 -0.4671  1.2980 -0.0389
    4NME   HH32   31  12.958   8.988   8.876 -1.4059 -0.0537 -0.0502
    4NME   HH33   32  13.067   8.847   8.916 -0.8371 -1.8996  0.6391
  20.99041  20.99041  20.99041
