Protein
   42
    1ACE   HH31    1  14.616  11.223  11.869 -1.5774  0.9541  0.9631
    1ACE    CH3    2  14.667  11.314  11.898  0.7540 -0.0851  0.3505
    1ACE   HH32    3  14.591  11.372  11.951 -0.5534 -0.8460 -0.6167
    1ACE   HH33    4  14.699  11.379  11.816 -0.3073 -0.7675 -0.6242
    1ACE      C    5  14.783  11.288  11.990 -0.5011  0.5403  0.4080
    1ACE      O    6  14.889  11.351  11.977 -0.6686  0.0045  0.4574
    2ALA      N    7  14.772  11.180  12.072  0.6974 -0.3888 -0.0620
    2ALA      H    8  14.688  11.123  12.072 -0.5497  1.3591  2.0262
    2ALA     CA    9  14.867  11.145  12.177  0.1179  0.2297  0.1605
    2ALA     HA   10  14.852  11.204  12.268 -0.5049 -0.2009  0.3399
    2ALA     CB   11  14.844  10.998  12.214  0.5071 -0.3686 -0.1107
    2ALA    HB1   12  14.851  10.937  12.124  2.1316 -1.6933  0.8427
    2ALA    HB2   13  14.923  10.958  12.278  0.3069 -1.3027 -0.4327
    2ALA    HB3   14  14.751  10.985  12.270 -1.1369  1.9000 -2.1017
    2ALA      C   15  15.012  11.173  12.135 -0.2789 -0.6429  0.5151
    2ALA      O   16  15.095  11.211  12.221  0.3145  0.2699 -0.6511
    3ALA      N   17  15.058  11.126  12.012  0.0063 -0.1487  0.4079
    3ALA      H   18  14.983  11.091  11.954 -2.0877  1.4360  2.0602
    3ALA     CA   19  15.186  11.166  11.946 -0.1366 -0.1423 -0.6825
    3ALA     HA   20  15.255  11.085  11.970  2.8531  2.2335 -0.4131
    3ALA     CB   21  15.174  11.162  11.791 -0.3703  0.6334 -0.0541
    3ALA    HB1   22  15.088  11.221  11.760 -1.6530 -1.0293  0.2369
    3ALA    HB2   23  15.259  11.201  11.734  0.7012 -3.1017 -1.2559
    3ALA    HB3   24  15.173  11.062  11.749  0.8302  0.6440 -0.1613
    3ALA      C   25  15.251  11.300  11.990 -1.4701  0.1926 -0.0004
    3ALA      O   26  15.374  11.310  12.014  0.5319 -0.2401  0.4384
    4ALA      N   27  15.179  11.406  11.983 -0.3827 -0.6911 -0.6060
    4ALA      H   28  15.083  11.393  11.954 -0.5865 -0.0210 -0.2728
    4ALA     CA   29  15.225  11.542  12.022  0.5164 -0.2670  0.2728
    4ALA     HA   30  15.320  11.530  12.074  0.8168 -2.5585 -0.6682
    4ALA     CB   31  15.252  11.617  11.891  0.5654  0.2026 -0.1598
    4ALA    HB1   32  15.306  11.710  11.908 -1.1761  1.1169  0.6718
    4ALA    HB2   33  15.321  11.559  11.829  2.0743  0.6897  0.9950
    4ALA    HB3   34  15.158  11.643  11.843  0.2896  1.2834  0.9407
    4ALA      C   35  15.118  11.609  12.119  0.6689  0.0563 -0.2099
    4ALA      O   36  15.109  11.731  12.137 -0.0609  0.5740  0.1299
    5NME      N   37  15.044  11.523  12.192  0.1799 -0.2156  0.1581
    5NME      H   38  15.061  11.425  12.175 -1.4159 -0.7410  1.3641
    5NME    CH3   39  14.944  11.563  12.294  0.6249  0.5482 -0.1672
    5NME   HH31   40  14.952  11.668  12.322 -0.0647  0.7715 -0.7717
    5NME   HH32   41  14.843  11.542  12.259  0.7178 -0.6429  0.2282
    5NME   HH33   42  14.969  11.507  12.384  2.5233  1.1301 -0.2988
  20.91516  20.91516  20.91516
