Protein
   32
    1ACE   HH31    1  10.261  10.052   9.882 -1.5849  1.0561 -0.1419
    1ACE    CH3    2  10.239  10.037   9.776 -0.1191 -0.1003 -0.3231
    1ACE   HH32    3  10.324  10.003   9.717  0.3225  1.0314 -0.3699
    1ACE   HH33    4  10.197  10.130   9.737 -1.8926  0.1954  2.0708
    1ACE      C    5  10.125   9.948   9.757  0.8942 -0.1504 -0.0929
    1ACE      O    6  10.142   9.834   9.719  0.3326  0.1517  0.1387
    2ALA      N    7  10.007   9.995   9.796  0.8039  0.0216  0.1835
    2ALA      H    8   9.992  10.095   9.801  0.5689 -0.0628  1.4865
    2ALA     CA    9   9.883   9.920   9.790  0.0021 -0.2917  0.0179
    2ALA     HA   10   9.911   9.815   9.786  0.5095 -0.2360  1.6293
    2ALA     CB   11   9.789   9.939   9.910  0.0580  0.1352 -0.2981
    2ALA    HB1   12   9.706   9.869   9.915 -0.3378  0.5026 -1.4946
    2ALA    HB2   13   9.842   9.928  10.005 -1.8953 -2.6233  0.6330
    2ALA    HB3   14   9.740  10.036   9.898  0.5149  0.5565  0.9463
    2ALA      C   15   9.799   9.952   9.663  0.5487  0.6964  0.0528
    2ALA      O   16   9.791  10.063   9.608  0.8268  0.3847 -0.1165
    3ALA      N   17   9.722   9.850   9.619 -0.0068  0.0997  0.1405
    3ALA      H   18   9.696   9.779   9.686 -2.1849  0.3724 -0.3392
    3ALA     CA   19   9.625   9.858   9.508 -1.1355  0.5062 -0.3772
    3ALA     HA   20   9.644   9.945   9.446 -1.1348 -0.6463 -2.0677
    3ALA     CB   21   9.654   9.727   9.430 -0.0166 -0.1504  0.7244
    3ALA    HB1   22   9.752   9.727   9.384 -0.3004 -0.7852  0.0981
    3ALA    HB2   23   9.648   9.645   9.501 -1.9919  1.2843  2.3342
    3ALA    HB3   24   9.574   9.712   9.357 -1.5960 -1.3130  2.6181
    3ALA      C   25   9.480   9.874   9.554  0.0796 -0.6243  0.4221
    3ALA      O   26   9.454   9.907   9.667  0.3150 -0.1732 -0.1099
    4NME      N   27   9.392   9.856   9.453 -0.1020  0.8144 -0.1457
    4NME      H   28   9.432   9.834   9.363 -1.8054 -1.5535 -0.4004
    4NME    CH3   29   9.243   9.858   9.456 -0.0414  0.4083 -0.2089
    4NME   HH31   30   9.211   9.778   9.388 -0.7396  0.5557 -0.0706
    4NME   HH32   31   9.208   9.840   9.557 -1.5660  0.5312 -0.6864
    4NME   HH33   32   9.209   9.958   9.431  0.6740  0.4961 -0.8728
  20.99041  20.99041  20.99041
