Protein
   22
    1ACE   HH31    1   2.483   7.938   3.111 -0.8179 -0.3688 -0.1524
    1ACE    CH3    2   2.472   7.948   3.003 -0.3755 -0.0121 -0.1679
    1ACE   HH32    3   2.540   8.031   2.982 -0.1771  0.3191  1.5874
    1ACE   HH33    4   2.368   7.965   2.975 -0.0685 -0.3520 -1.5868
    1ACE      C    5   2.516   7.825   2.926 -0.3568  1.0328 -0.2479
    1ACE      O    6   2.573   7.729   2.978 -0.2605 -0.4901 -0.2115
    2ALA      N    7   2.499   7.830   2.795  0.4342  0.1318  0.2937
    2ALA      H    8   2.457   7.911   2.751 -2.0715 -2.2888 -2.2639
    2ALA     CA    9   2.494   7.717   2.697 -0.0167  0.0321  0.7674
    2ALA     HA   10   2.594   7.673   2.699  0.0914  0.1590 -0.9434
    2ALA     CB   11   2.381   7.614   2.737 -0.5007  0.4160  0.0853
    2ALA    HB1   12   2.288   7.670   2.725 -1.1805 -0.9722 -1.4742
    2ALA    HB2   13   2.380   7.523   2.677  1.3850 -0.6759  1.5960
    2ALA    HB3   14   2.400   7.577   2.838  1.4580 -2.9394 -1.3579
    2ALA      C   15   2.467   7.765   2.551  0.3326  0.3718  0.1239
    2ALA      O   16   2.421   7.684   2.467  0.2740 -0.0452 -0.1281
    3NME      N   17   2.493   7.893   2.520  1.2118  0.2655 -0.8925
    3NME      H   18   2.538   7.945   2.594  0.1181  2.4799 -1.6882
    3NME    CH3   19   2.471   7.957   2.391  0.0716 -0.2014  0.1635
    3NME   HH31   20   2.365   7.967   2.366  0.2727 -0.4919 -0.8370
    3NME   HH32   21   2.525   8.051   2.404  1.5176 -1.0623  0.6183
    3NME   HH33   22   2.527   7.903   2.315 -1.9381 -2.7179  0.3326
  10.72160  10.72160  10.72160
