Protein
   32
    1ACE   HH31    1   8.967  13.575  15.147  2.4533 -0.3069 -0.2108
    1ACE    CH3    2   8.919  13.617  15.058  0.4287 -1.1110  0.4579
    1ACE   HH32    3   8.827  13.666  15.089 -0.6943 -1.9696 -1.3349
    1ACE   HH33    4   8.884  13.541  14.989  1.7010 -1.5998  0.3120
    1ACE      C    5   9.012  13.702  14.971 -0.7687  0.7913 -0.4984
    1ACE      O    6   9.125  13.721  15.007  0.7193 -0.1718 -0.5284
    2ALA      N    7   8.965  13.763  14.862 -0.8416  0.1836 -0.2524
    2ALA      H    8   8.864  13.757  14.857 -1.0603  1.9099  1.2874
    2ALA     CA    9   9.042  13.845  14.762  0.4884 -0.5961 -0.1848
    2ALA     HA   10   9.150  13.834  14.778  0.7380  0.9520 -0.6618
    2ALA     CB   11   8.999  13.797  14.619  0.3412 -0.0070  0.2735
    2ALA    HB1   12   9.039  13.698  14.596  1.3549  0.0504  1.6412
    2ALA    HB2   13   8.890  13.796  14.622  0.3164  1.5003  1.0337
    2ALA    HB3   14   9.027  13.862  14.536 -0.5966  0.5382  0.3784
    2ALA      C   15   9.012  13.997  14.772  0.8902  0.1810  0.1117
    2ALA      O   16   9.074  14.069  14.698 -0.5785 -0.1902 -0.0638
    3ALA      N   17   8.923  14.046  14.861 -0.0259 -0.2938 -0.1983
    3ALA      H   18   8.880  13.976  14.920  0.7651 -0.4482  0.2193
    3ALA     CA   19   8.861  14.181  14.870 -0.8507 -0.2100 -0.0524
    3ALA     HA   20   8.899  14.234  14.782  0.0404 -0.4957  0.1482
    3ALA     CB   21   8.712  14.165  14.845 -0.0191  0.2307 -0.3469
    3ALA    HB1   22   8.700  14.131  14.742  2.2678 -1.0286 -0.2470
    3ALA    HB2   23   8.671  14.090  14.912  2.1302 -1.5133 -0.8658
    3ALA    HB3   24   8.665  14.263  14.859  0.2389  0.3245 -0.1092
    3ALA      C   25   8.899  14.275  14.993  0.1929  0.0668 -0.4146
    3ALA      O   26   8.842  14.388  15.002 -0.1565  0.5103 -0.1890
    4NME      N   27   8.990  14.232  15.077 -0.8763 -0.3874  0.6791
    4NME      H   28   9.058  14.163  15.048  0.0620  1.2029 -1.2512
    4NME    CH3   29   9.036  14.315  15.190 -0.0390  0.0009 -0.0961
    4NME   HH31   30   9.133  14.279  15.226 -0.3215 -0.6222  0.0652
    4NME   HH32   31   9.042  14.417  15.153 -0.9842  0.1185  0.0608
    4NME   HH33   32   8.967  14.327  15.272 -0.1826 -1.5181  0.0336
  20.99041  20.99041  20.99041
