Protein
   32
    1ACE   HH31    1   5.554  18.384  10.523 -3.2232  1.8841  0.4004
    1ACE    CH3    2   5.608  18.469  10.482 -0.1201 -0.2078 -0.1959
    1ACE   HH32    3   5.550  18.559  10.505 -1.0322 -0.9742  0.6007
    1ACE   HH33    4   5.623  18.442  10.377  1.8357 -0.3043  0.0798
    1ACE      C    5   5.739  18.477  10.557  0.7498  0.1210 -0.1510
    1ACE      O    6   5.836  18.418  10.509 -0.1463 -0.3039 -0.7167
    2ALA      N    7   5.736  18.547  10.672 -0.6161  0.3622 -0.4180
    2ALA      H    8   5.647  18.584  10.700  0.0132  2.0818 -0.6092
    2ALA     CA    9   5.830  18.534  10.775 -0.3680 -0.0846 -0.1179
    2ALA     HA   10   5.934  18.536  10.744  0.0449 -2.0217  0.9833
    2ALA     CB   11   5.810  18.653  10.872 -0.2751  0.1819  0.9767
    2ALA    HB1   12   5.814  18.744  10.813 -1.2200 -1.0710 -1.1181
    2ALA    HB2   13   5.715  18.649  10.926 -1.0795 -0.0078 -0.4294
    2ALA    HB3   14   5.885  18.666  10.950 -0.8753  0.1565  1.5777
    2ALA      C   15   5.810  18.399  10.846 -0.1395  0.1027  0.1407
    2ALA      O   16   5.697  18.350  10.854  0.1360 -0.2710 -0.3071
    3ALA      N   17   5.913  18.347  10.914  0.4841 -0.1593 -0.7013
    3ALA      H   18   6.007  18.381  10.899  0.0378  0.4173 -2.4988
    3ALA     CA   19   5.914  18.221  10.993  1.1415 -0.1024 -0.1331
    3ALA     HA   20   5.813  18.186  11.014  0.6206 -0.1090 -2.3387
    3ALA     CB   21   5.990  18.119  10.908 -0.4378  0.0557 -0.4992
    3ALA    HB1   22   5.946  18.112  10.809 -0.6760  2.4667 -0.6206
    3ALA    HB2   23   6.095  18.145  10.894 -0.1287 -1.4177 -1.0807
    3ALA    HB3   24   5.985  18.024  10.962 -1.2968 -1.5697 -3.2760
    3ALA      C   25   5.983  18.245  11.128 -0.0931 -0.2137  0.4441
    3ALA      O   26   6.063  18.162  11.172  0.5606 -0.1947 -0.2892
    4NME      N   27   5.969  18.370  11.184 -0.5437  0.0244 -0.1499
    4NME      H   28   5.907  18.434  11.137 -1.5951 -0.8494 -0.0337
    4NME    CH3   29   6.049  18.421  11.302 -0.2578  0.0520  0.9536
    4NME   HH31   30   6.064  18.340  11.373 -2.3964 -2.5298 -1.2914
    4NME   HH32   31   6.135  18.469  11.256 -1.9006  3.2388  0.8911
    4NME   HH33   32   5.989  18.504  11.339 -0.1073  1.3168 -1.4420
  20.99041  20.99041  20.99041
