Protein
   32
    1ACE   HH31    1  15.505   5.667  10.236 -1.7871  1.2529 -0.8774
    1ACE    CH3    2  15.502   5.581  10.169 -0.5341 -0.1665  0.7532
    1ACE   HH32    3  15.467   5.616  10.071  1.1357  0.5854  0.3863
    1ACE   HH33    4  15.431   5.512  10.216 -0.2122  0.4409  2.1920
    1ACE      C    5  15.634   5.495  10.154  0.7890  0.7248 -0.3093
    1ACE      O    6  15.628   5.378  10.184 -0.6452  0.9442 -0.1680
    2ALA      N    7  15.746   5.557  10.121  0.1110 -0.4535  0.4205
    2ALA      H    8  15.739   5.657  10.108 -2.2132 -0.7291 -0.8808
    2ALA     CA    9  15.877   5.501  10.125 -0.2383  0.4374 -0.1015
    2ALA     HA   10  15.855   5.399  10.093 -0.2486  0.9714 -1.9061
    2ALA     CB   11  15.972   5.573  10.032  0.0590 -0.4249 -0.1907
    2ALA    HB1   12  16.070   5.525  10.032  0.8980  1.1604 -1.1692
    2ALA    HB2   13  15.936   5.563   9.930 -0.5168 -3.8054  0.2633
    2ALA    HB3   14  15.982   5.678  10.062  0.0777 -0.2319 -0.8437
    2ALA      C   15  15.935   5.484  10.269  0.2757  0.1311  0.0190
    2ALA      O   16  15.980   5.583  10.329 -0.9233 -0.0457  0.1535
    3ALA      N   17  15.945   5.354  10.311 -0.0627 -0.7459  0.5451
    3ALA      H   18  15.891   5.295  10.249 -0.5193 -0.2583  0.4837
    3ALA     CA   19  15.983   5.300  10.439  0.0885 -0.1774 -0.5596
    3ALA     HA   20  15.923   5.211  10.454 -0.1194  0.0096 -0.2634
    3ALA     CB   21  16.132   5.259  10.423 -0.1993 -0.1126  0.8223
    3ALA    HB1   22  16.192   5.341  10.383 -1.8692  0.0343 -1.6818
    3ALA    HB2   23  16.170   5.223  10.518 -0.2134 -3.0136 -0.1483
    3ALA    HB3   24  16.128   5.170  10.360  1.3840  0.7418 -0.5712
    3ALA      C   25  15.950   5.396  10.558  0.3850 -0.0466  0.3253
    3ALA      O   26  15.838   5.393  10.613  0.2694  0.3677  0.7645
    4NME      N   27  16.052   5.473  10.600  0.0154 -0.2776 -0.2881
    4NME      H   28  16.129   5.481  10.536  0.6382 -1.1471  0.3206
    4NME    CH3   29  16.035   5.593  10.683  0.4609 -0.1316  0.1516
    4NME   HH31   30  15.929   5.619  10.683  0.5685  0.3066 -0.5520
    4NME   HH32   31  16.076   5.575  10.783 -0.4647 -1.0277  0.3892
    4NME   HH33   32  16.091   5.669  10.629 -0.0219  1.3281  1.6211
  20.99041  20.99041  20.99041
