Protein
   32
    1ACE   HH31    1  12.358  15.349   6.528 -0.1979  0.1036  0.6896
    1ACE    CH3    2  12.350  15.456   6.549  0.0232  0.2408  0.1204
    1ACE   HH32    3  12.368  15.462   6.657 -1.9070 -0.4348  0.5159
    1ACE   HH33    4  12.251  15.495   6.525  0.6693  1.9129  0.0468
    1ACE      C    5  12.458  15.518   6.456  0.6827  0.0638 -0.1996
    1ACE      O    6  12.550  15.570   6.511  0.1662 -0.3841  0.6696
    2ALA      N    7  12.442  15.504   6.325 -0.4347 -0.2051  0.4195
    2ALA      H    8  12.353  15.468   6.292  0.1195 -0.9453 -0.3137
    2ALA     CA    9  12.536  15.539   6.212 -0.1063 -0.3298 -0.5730
    2ALA     HA   10  12.618  15.468   6.221  0.1967  0.0669 -0.1665
    2ALA     CB   11  12.463  15.496   6.085 -0.0131  0.2407  0.2078
    2ALA    HB1   12  12.530  15.516   6.001 -0.0502 -1.0685 -0.1726
    2ALA    HB2   13  12.439  15.390   6.088 -1.6398  0.6043  2.1993
    2ALA    HB3   14  12.371  15.554   6.072 -0.1841 -0.4365 -2.1040
    2ALA      C   15  12.598  15.681   6.201 -0.8526  0.6154 -0.5271
    2ALA      O   16  12.642  15.712   6.089  0.4076  0.2345  0.5574
    3ALA      N   17  12.624  15.743   6.313  0.3231  0.0717  0.1362
    3ALA      H   18  12.617  15.695   6.401  0.2423 -1.2605 -0.5718
    3ALA     CA   19  12.683  15.873   6.312 -0.2378  0.0726 -0.2888
    3ALA     HA   20  12.759  15.869   6.234 -1.1602  1.2285 -1.2821
    3ALA     CB   21  12.578  15.974   6.272  0.1911 -0.9674 -0.1634
    3ALA    HB1   22  12.488  15.981   6.334  0.5837  1.8292  0.2435
    3ALA    HB2   23  12.631  16.067   6.251  1.8613 -2.1682 -1.6341
    3ALA    HB3   24  12.535  15.945   6.176 -1.5927  2.3920 -0.5314
    3ALA      C   25  12.757  15.915   6.444  0.6998 -0.3230 -0.1418
    3ALA      O   26  12.828  16.015   6.448  0.1885 -0.5420 -0.3531
    4NME      N   27  12.748  15.834   6.552  0.3446  0.6189 -0.4728
    4NME      H   28  12.697  15.747   6.549 -1.0078  1.3389 -0.0792
    4NME    CH3   29  12.813  15.866   6.675  0.6714 -0.2183 -0.2594
    4NME   HH31   30  12.918  15.894   6.665  0.4436  0.4106 -1.0998
    4NME   HH32   31  12.747  15.941   6.720  0.3756 -1.1952  0.9752
    4NME   HH33   32  12.802  15.780   6.741 -1.6688 -1.5179 -2.1581
  20.99041  20.99041  20.99041
