Title
  129
    1AIB    CAY    1  22.312  20.192  22.359 -0.0629 -0.2569  0.6284
    1AIB    HY1    2  22.337  20.253  22.449 -1.9558 -0.5692  1.4179
    1AIB    HY2    3  22.242  20.112  22.389 -0.2632  0.4312  2.1238
    1AIB    HY3    4  22.260  20.254  22.282 -0.1803 -0.6769  0.3692
    1AIB     CY    5  22.427  20.138  22.279  0.1995  0.5401  0.8134
    1AIB     OY    6  22.457  20.020  22.296  0.3821 -0.1352  0.6215
    1AIB      N    7  22.491  20.215  22.194 -0.4750 -0.0535 -0.3307
    1AIB     HN    8  22.452  20.304  22.170 -1.3216  0.1377  1.5119
    1AIB     CA    9  22.601  20.187  22.103  0.5234  0.5337  0.6956
    1AIB    CB1   10  22.667  20.321  22.070 -0.2917 -0.7739  0.2796
    1AIB   HB11   11  22.728  20.363  22.153 -0.6023 -0.1940  0.2174
    1AIB   HB12   12  22.589  20.397  22.047  0.1204 -0.8970 -1.6872
    1AIB   HB13   13  22.725  20.318  21.975  3.4578  2.3092  2.1799
    1AIB    CB2   14  22.542  20.124  21.972  0.5847  0.8291 -0.2273
    1AIB   HB21   15  22.618  20.115  21.891 -1.5681  2.5628 -2.6011
    1AIB   HB22   16  22.462  20.192  21.936  0.7940  1.4516  0.4456
    1AIB   HB23   17  22.507  20.021  21.996  1.3354  0.8465  1.0781
    1AIB      C   18  22.704  20.086  22.158 -0.8745  0.1598 -0.2111
    1AIB      O   19  22.731  19.985  22.093 -0.4561 -0.0941 -0.7155
    2AIB      N   20  22.766  20.116  22.274  0.5024  0.0455  0.4582
    2AIB     HN   21  22.756  20.207  22.314 -0.3959 -0.2047  0.8594
    2AIB     CA   22  22.845  20.034  22.353 -0.2088 -0.1550 -0.5772
    2AIB    CB1   23  22.826  20.084  22.498 -0.2321 -0.0533 -0.2526
    2AIB   HB11   24  22.845  20.193  22.496 -1.3470  0.1559 -3.0417
    2AIB   HB12   25  22.891  20.023  22.565  2.7721  2.1091 -1.0213
    2AIB   HB13   26  22.721  20.070  22.534 -0.6944 -1.1232 -1.8835
    2AIB    CB2   27  22.997  20.041  22.306  0.8081 -0.5239  0.0464
    2AIB   HB21   28  22.996  20.005  22.200  1.4472 -3.4693  0.9423
    2AIB   HB22   29  23.060  19.973  22.366  0.6520 -0.2224  0.5567
    2AIB   HB23   30  23.028  20.147  22.304  0.6134 -0.3615 -3.5114
    2AIB      C   31  22.812  19.877  22.363 -0.0322 -0.4624  0.2085
    2AIB      O   32  22.904  19.798  22.340  0.1127  0.2431  0.1527
    3AIB      N   33  22.686  19.844  22.391 -0.8044  0.4156 -0.7361
    3AIB     HN   34  22.611  19.909  22.395 -0.2669  1.0092 -0.1318
    3AIB     CA   35  22.647  19.706  22.406 -0.1913  0.9845  0.0817
    3AIB    CB1   36  22.494  19.714  22.418  0.2034  0.4287 -0.1568
    3AIB   HB11   37  22.461  19.609  22.437  1.1473  0.3456  1.1812
    3AIB   HB12   38  22.449  19.751  22.323 -0.2888 -2.1889 -1.0223
    3AIB   HB13   39  22.477  19.781  22.505 -0.9773  1.2980 -1.0364
    3AIB    CB2   40  22.710  19.640  22.537  0.4540 -0.3311 -0.0917
    3AIB   HB21   41  22.668  19.537  22.538  0.9925 -0.5553  1.2853
    3AIB   HB22   42  22.661  19.695  22.620  0.1204 -0.4211 -0.2288
    3AIB   HB23   43  22.821  19.643  22.540  0.4206  1.8133  1.8875
    3AIB      C   44  22.675  19.625  22.282 -0.4721  0.3545  0.1261
    3AIB      O   45  22.717  19.510  22.286 -0.2804  0.0228 -0.8125
    4AIB      N   46  22.657  19.684  22.161  0.4399  0.1332  0.2537
    4AIB     HN   47  22.631  19.779  22.147  0.3199  0.1429  0.5354
    4AIB     CA   48  22.657  19.611  22.037 -0.3385  0.7283  0.0725
    4AIB    CB1   49  22.596  19.691  21.926  0.3510 -0.4399 -0.3459
    4AIB   HB11   50  22.600  19.635  21.830 -1.7955 -1.4763  0.1103
    4AIB   HB12   51  22.641  19.792  21.914  1.8771 -0.8491  1.6176
    4AIB   HB13   52  22.490  19.705  21.956  0.6560  0.6706  0.2235
    4AIB    CB2   53  22.561  19.491  22.053  0.0430  0.1156  0.1228
    4AIB   HB21   54  22.558  19.439  21.955 -2.8145  1.9431 -0.8464
    4AIB   HB22   55  22.458  19.530  22.064  0.5839  1.8484 -0.6457
    4AIB   HB23   56  22.589  19.419  22.133  0.4208  0.1689  0.0462
    4AIB      C   57  22.802  19.573  21.985  0.3060 -0.3250  0.1971
    4AIB      O   58  22.825  19.467  21.928  0.3691 -0.1600 -0.0792
    5AIB      N   59  22.895  19.662  22.005  0.3071  0.0019  0.4242
    5AIB     HN   60  22.871  19.747  22.051  1.0431  1.4893 -1.7849
    5AIB     CA   61  23.037  19.645  21.968  0.5580 -0.6457  0.5759
    5AIB    CB1   62  23.092  19.783  21.998 -0.0580  0.6658  0.1284
    5AIB   HB11   63  23.090  19.814  22.105  0.6179 -1.2558  0.7496
    5AIB   HB12   64  23.042  19.860  21.936  3.6780  2.6455 -0.7610
    5AIB   HB13   65  23.196  19.793  21.959 -0.7170 -1.5993 -2.5091
    5AIB    CB2   66  23.048  19.621  21.818 -0.0265 -0.0917 -0.9194
    5AIB   HB21   67  23.035  19.517  21.782  0.7320 -0.6331  0.3056
    5AIB   HB22   68  23.147  19.654  21.780 -0.2330  0.2351 -1.1899
    5AIB   HB23   69  22.967  19.677  21.766  0.7466  1.4510 -0.5332
    5AIB      C   70  23.099  19.531  22.051  0.3845 -0.7361  0.0364
    5AIB      O   71  23.189  19.454  22.010 -0.5867 -0.3674 -0.1593
    6AIB      N   72  23.053  19.511  22.179 -0.9705 -0.1657 -0.2457
    6AIB     HN   73  22.980  19.567  22.218 -0.8697  0.6193 -1.1488
    6AIB     CA   74  23.113  19.433  22.281 -0.7902 -0.1717 -1.3673
    6AIB    CB1   75  23.032  19.467  22.405 -0.0236  0.5263  0.1282
    6AIB   HB11   76  23.041  19.573  22.437  2.1244  0.4479 -0.0868
    6AIB   HB12   77  23.077  19.401  22.482  4.9501  0.9221 -2.0521
    6AIB   HB13   78  22.924  19.444  22.392  0.3676 -2.1917  1.0200
    6AIB    CB2   79  23.261  19.468  22.312  0.0531 -0.6506 -0.7758
    6AIB   HB21   80  23.322  19.468  22.219  2.8556  0.9681  0.9050
    6AIB   HB22   81  23.305  19.404  22.391 -0.1140  1.0349  0.7529
    6AIB   HB23   82  23.275  19.573  22.345  1.9430 -1.8285  2.6339
    6AIB      C   83  23.097  19.275  22.245  0.2980  0.3604 -0.3437
    6AIB      O   84  23.171  19.185  22.281 -0.4187 -0.4938 -1.0770
    7AIB      N   85  22.993  19.257  22.156 -0.3623 -0.0994 -0.0374
    7AIB     HN   86  22.945  19.338  22.124 -0.0251  0.3179  0.4749
    7AIB     CA   87  22.944  19.129  22.100  0.3361  0.4102 -0.5130
    7AIB    CB1   88  22.841  19.156  21.982  0.0755  0.2029 -0.2715
    7AIB   HB11   89  22.886  19.212  21.898  0.0239 -1.5488 -1.5112
    7AIB   HB12   90  22.752  19.213  22.015  0.8069  0.2018  1.9243
    7AIB   HB13   91  22.806  19.054  21.954 -0.3567 -0.2770  1.8274
    7AIB    CB2   92  22.873  19.050  22.206  0.0570  0.0039  0.5700
    7AIB   HB21   93  22.797  19.115  22.254 -0.8192  0.2182 -1.0082
    7AIB   HB22   94  22.944  19.024  22.287  2.2441  1.0417 -0.9177
    7AIB   HB23   95  22.821  18.961  22.166  0.4420 -0.5770  1.3468
    7AIB      C   96  23.063  19.056  22.036 -0.5104 -0.1292 -0.2421
    7AIB      O   97  23.070  18.934  22.029 -0.4967  0.1840  0.3329
    8AIB      N   98  23.164  19.134  21.987  0.1795 -0.3209 -0.3246
    8AIB     HN   99  23.160  19.233  21.985  0.9516 -0.2719  0.0368
    8AIB     CA  100  23.277  19.087  21.910  0.4647 -0.6083  0.0072
    8AIB    CB1  101  23.358  19.214  21.896  0.3684  0.3298 -0.2877
    8AIB   HB11  102  23.456  19.200  21.846  0.5670  0.7017 -0.0150
    8AIB   HB12  103  23.383  19.257  21.996  0.6850 -1.1722  0.3038
    8AIB   HB13  104  23.310  19.303  21.850 -2.3718 -0.0301  1.6742
    8AIB    CB2  105  23.232  19.033  21.772 -0.0101  0.4567 -0.0340
    8AIB   HB21  106  23.320  19.018  21.706  1.0065  0.4384  1.2661
    8AIB   HB22  107  23.145  19.083  21.726 -0.5444  0.8856  1.4093
    8AIB   HB23  108  23.191  18.932  21.793  1.6961 -0.2887 -0.0340
    8AIB      C  109  23.362  18.990  21.990  0.0029  0.8142 -0.2290
    8AIB      O  110  23.411  18.893  21.930 -0.5547 -0.8947 -0.4491
    9AIB      N  111  23.381  19.009  22.128  0.1950 -0.2633  0.6836
    9AIB     HN  112  23.331  19.077  22.180 -1.0928  0.4022 -1.3168
    9AIB     CA  113  23.437  18.912  22.220  0.6656  0.1449  0.0189
    9AIB    CB1  114  23.401  18.966  22.360 -0.3936 -1.1578  0.2346
    9AIB   HB11  115  23.443  18.898  22.437 -0.4798  0.4639  1.7741
    9AIB   HB12  116  23.292  18.976  22.377 -0.0556 -0.5843  2.2334
    9AIB   HB13  117  23.445  19.068  22.367 -1.3239 -0.6861 -0.5337
    9AIB    CB2  118  23.588  18.918  22.208  0.4684 -0.5517  0.2373
    9AIB   HB21  119  23.611  18.857  22.118  0.8556 -1.2066  0.7553
    9AIB   HB22  120  23.639  18.858  22.287  1.5962 -0.7529 -0.5979
    9AIB   HB23  121  23.639  19.016  22.202  0.8550 -0.6969  0.9416
    9AIB      C  122  23.389  18.762  22.209 -0.1226 -0.3797  0.1404
    9AIB      O  123  23.466  18.664  22.218  0.7726  0.2315 -0.1833
    9AIB     NT  124  23.259  18.744  22.186 -0.4993  0.0441 -0.2572
    9AIB    HNT  125  23.207  18.825  22.159  0.5618  1.2589  1.1193
    9AIB    CAT  126  23.191  18.615  22.170  0.0315  0.0403 -0.2379
    9AIB    HT1  127  23.237  18.531  22.225 -0.3011  0.9728  1.5230
    9AIB    HT2  128  23.184  18.590  22.062 -1.4111  0.4473 -0.2546
    9AIB    HT3  129  23.085  18.614  22.203 -0.5560 -0.5014 -1.9866
  42.09246  42.09246  42.09246
