Protein
   42
    1ACE   HH31    1   9.957  13.966  11.747 -1.0608  1.4093  0.1625
    1ACE    CH3    2   9.883  13.897  11.707  0.2885 -0.1319  0.2179
    1ACE   HH32    3   9.900  13.878  11.601  1.7477  1.3251  0.1477
    1ACE   HH33    4   9.781  13.933  11.714  0.4653  0.4388 -0.0606
    1ACE      C    5   9.896  13.764  11.775  0.1288 -1.4028  0.2114
    1ACE      O    6   9.798  13.691  11.788 -0.3672  0.2130  0.1870
    2ALA      N    7  10.027  13.732  11.810 -0.0513 -0.2650  0.2925
    2ALA      H    8  10.083  13.815  11.800 -0.3038 -0.2075 -0.8241
    2ALA     CA    9  10.086  13.622  11.885  0.8620 -0.3030 -0.2870
    2ALA     HA   10  10.158  13.671  11.950  0.6140 -0.3154  0.0009
    2ALA     CB   11   9.989  13.562  11.984 -0.1127 -0.2722  0.0874
    2ALA    HB1   12  10.041  13.488  12.045  1.4107  1.0983  0.4671
    2ALA    HB2   13   9.942  13.642  12.040  2.2226  1.1130  0.1762
    2ALA    HB3   14   9.922  13.501  11.922  2.3791 -2.1959 -0.9043
    2ALA      C   15  10.154  13.524  11.790 -0.0470  1.3098  0.0682
    2ALA      O   16  10.118  13.519  11.673 -0.5555  0.7425 -0.3517
    3ALA      N   17  10.250  13.445  11.829 -0.1393 -0.1511 -0.0066
    3ALA      H   18  10.253  13.366  11.766 -1.3739 -1.6921  1.7295
    3ALA     CA   19  10.370  13.483  11.903  0.0994  0.1157  0.4798
    3ALA     HA   20  10.342  13.475  12.008 -0.3060 -2.5699  0.2360
    3ALA     CB   21  10.477  13.380  11.869  0.1409  0.0889  0.1628
    3ALA    HB1   22  10.556  13.400  11.941  0.2091 -0.4117  0.2367
    3ALA    HB2   23  10.444  13.278  11.888  0.6751  0.2441  2.0448
    3ALA    HB3   24  10.514  13.387  11.766 -0.9580 -1.1492 -0.3534
    3ALA      C   25  10.422  13.623  11.872 -1.4539 -0.2490 -0.8131
    3ALA      O   26  10.458  13.701  11.970 -0.0065 -0.6647 -0.3474
    4ALA      N   27  10.424  13.655  11.741  0.2748 -0.2014  0.7328
    4ALA      H   28  10.380  13.591  11.676 -0.3629  2.0012 -1.1500
    4ALA     CA   29  10.457  13.791  11.690  0.2990 -0.8442 -0.1232
    4ALA     HA   30  10.562  13.817  11.701  0.2570 -1.0986  1.0528
    4ALA     CB   31  10.414  13.805  11.548  0.0132  0.3480 -0.5283
    4ALA    HB1   32  10.485  13.775  11.471 -1.8455  2.2550 -3.1196
    4ALA    HB2   33  10.312  13.772  11.532  0.4492 -0.6315 -1.4239
    4ALA    HB3   34  10.434  13.910  11.526  2.3603 -0.1359 -1.0541
    4ALA      C   35  10.386  13.908  11.760  0.4295 -0.2750  0.1880
    4ALA      O   36  10.266  13.919  11.758  1.0268 -0.0710  0.1518
    5NME      N   37  10.469  13.998  11.815 -0.0783 -0.7022  0.2694
    5NME      H   38  10.568  13.978  11.812 -0.2525 -1.6363  0.4001
    5NME    CH3   39  10.418  14.122  11.875 -0.1274 -0.5971  0.3291
    5NME   HH31   40  10.317  14.103  11.912 -0.8536  1.6609 -0.2695
    5NME   HH32   41  10.478  14.149  11.962  1.3097  0.2005 -0.8467
    5NME   HH33   42  10.419  14.207  11.807 -3.6092  0.4374  1.3754
  20.91516  20.91516  20.91516
