Protein
   32
    1ACE   HH31    1  10.753  13.073  11.557  0.5132 -0.1852 -2.3312
    1ACE    CH3    2  10.785  13.177  11.546 -0.1047  0.3727  0.3880
    1ACE   HH32    3  10.891  13.192  11.565 -0.1427  2.4959 -0.8116
    1ACE   HH33    4  10.730  13.224  11.627 -2.9017  0.0426 -1.1981
    1ACE      C    5  10.739  13.237  11.412 -0.5006  0.2292  0.1939
    1ACE      O    6  10.677  13.344  11.401 -0.5768  0.1799 -0.0863
    2ALA      N    7  10.785  13.165  11.305  0.9351  0.4199 -0.1328
    2ALA      H    8  10.825  13.074  11.324 -0.0214 -0.0006 -0.0399
    2ALA     CA    9  10.747  13.177  11.160 -0.5630  0.3598 -0.1518
    2ALA     HA   10  10.783  13.088  11.109 -1.5625 -0.1719  0.0414
    2ALA     CB   11  10.595  13.159  11.144 -0.0021  0.1302  0.1394
    2ALA    HB1   12  10.552  13.241  11.202  1.2577  1.8561 -1.2583
    2ALA    HB2   13  10.554  13.177  11.044  2.0088  0.8706 -0.5918
    2ALA    HB3   14  10.559  13.063  11.179 -1.2010  1.2476  2.1108
    2ALA      C   15  10.826  13.292  11.091  0.2739  0.0431 -0.0308
    2ALA      O   16  10.918  13.265  11.016  0.4578  0.3842  0.2461
    3ALA      N   17  10.783  13.417  11.120 -0.4768  0.6163 -0.4139
    3ALA      H   18  10.717  13.421  11.195 -0.9786 -0.0860 -0.8081
    3ALA     CA   19  10.845  13.542  11.097  0.2061 -0.0543 -0.4343
    3ALA     HA   20  10.949  13.522  11.071  0.0558  1.8001 -2.7928
    3ALA     CB   21  10.784  13.606  10.968  0.3060  0.3694 -0.0433
    3ALA    HB1   22  10.811  13.710  10.952  0.3949  0.6193  1.5764
    3ALA    HB2   23  10.809  13.552  10.877  0.8512  0.1191  0.2552
    3ALA    HB3   24  10.677  13.614  10.988  0.0068 -0.1048 -1.3952
    3ALA      C   25  10.834  13.644  11.213  0.0767  0.5706  0.1759
    3ALA      O   26  10.872  13.755  11.188  0.0916 -0.1670 -0.0324
    4NME      N   27  10.769  13.610  11.327  0.2639  0.2346 -0.4110
    4NME      H   28  10.751  13.512  11.340  0.7589  0.1812 -0.1145
    4NME    CH3   29  10.734  13.686  11.448  0.2873 -0.0199  0.6665
    4NME   HH31   30  10.691  13.778  11.407 -1.2472 -1.9009 -2.2773
    4NME   HH32   31  10.659  13.624  11.496  2.9869 -3.6955  0.6052
    4NME   HH33   32  10.815  13.714  11.515 -0.3889  0.2018  1.3926
  20.99041  20.99041  20.99041
