Protein
   32
    1ACE   HH31    1  11.315   2.267   9.716  1.0689 -0.9948 -1.0018
    1ACE    CH3    2  11.227   2.206   9.694 -0.1746 -0.0337  0.9370
    1ACE   HH32    3  11.149   2.214   9.769 -1.9220 -0.2007 -0.7811
    1ACE   HH33    4  11.260   2.102   9.693  0.3805  0.1360  0.9319
    1ACE      C    5  11.166   2.250   9.557 -0.5506 -0.4178  0.6570
    1ACE      O    6  11.235   2.311   9.478  0.0885  0.4682 -0.2241
    2ALA      N    7  11.034   2.237   9.547  0.3445  0.0993 -0.5343
    2ALA      H    8  10.990   2.191   9.625  2.0389 -2.6652 -1.0913
    2ALA     CA    9  10.943   2.268   9.437  0.3049  0.4207 -0.5422
    2ALA     HA   10  10.998   2.239   9.347  1.1063 -0.2474  0.1462
    2ALA     CB   11  10.806   2.181   9.441  0.0077 -0.8961  0.7244
    2ALA    HB1   12  10.751   2.184   9.347  1.8493 -0.8772 -0.4057
    2ALA    HB2   13  10.821   2.074   9.455  0.2941 -1.0102 -0.2751
    2ALA    HB3   14  10.744   2.237   9.510  0.5742  2.7680 -1.4234
    2ALA      C   15  10.929   2.424   9.420  0.5968  0.2690  0.0970
    2ALA      O   16  10.922   2.475   9.307 -0.0103 -0.0306 -0.1929
    3ALA      N   17  10.946   2.503   9.526 -0.0931 -0.2271  0.0063
    3ALA      H   18  10.959   2.458   9.615 -0.3934 -0.8349 -0.2474
    3ALA     CA   19  10.961   2.650   9.515 -0.7908 -0.2565 -0.7344
    3ALA     HA   20  11.019   2.672   9.426  3.3702 -1.1834  1.4738
    3ALA     CB   21  10.816   2.712   9.522 -0.1031 -0.0029  0.0887
    3ALA    HB1   22  10.816   2.819   9.502  2.7519  0.1559  0.5976
    3ALA    HB2   23  10.758   2.674   9.438 -0.6368  1.6942 -0.3516
    3ALA    HB3   24  10.771   2.682   9.617  0.7721 -1.1745  0.1495
    3ALA      C   25  11.050   2.703   9.631  0.3927 -0.3160 -0.2593
    3ALA      O   26  11.046   2.651   9.742 -0.5027 -0.1519 -0.6280
    4NME      N   27  11.118   2.821   9.610  0.0675  0.1658  0.0104
    4NME      H   28  11.127   2.853   9.514 -2.6013  1.4747  0.0760
    4NME    CH3   29  11.188   2.893   9.720  0.1066 -0.2196  0.4493
    4NME   HH31   30  11.260   2.962   9.677 -0.0803 -1.5797 -2.3468
    4NME   HH32   31  11.114   2.950   9.775 -1.0009  0.5119 -1.6601
    4NME   HH33   32  11.242   2.823   9.783  2.1032  0.3968 -0.4980
  20.99041  20.99041  20.99041
