Protein
   32
    1ACE   HH31    1   7.720  20.532  12.457  0.6179 -0.3278  2.2786
    1ACE    CH3    2   7.788  20.616  12.444 -0.5438  0.3002 -0.2270
    1ACE   HH32    3   7.751  20.694  12.377  0.4780  3.9963  3.1938
    1ACE   HH33    4   7.886  20.572  12.428 -0.2927 -0.7221  3.1536
    1ACE      C    5   7.764  20.705  12.567 -2.7106  1.6360 -0.0625
    1ACE      O    6   7.722  20.818  12.565 -0.2679 -0.1396  0.1410
    2ALA      N    7   7.835  20.671  12.679 -1.0223  0.1408  0.0990
    2ALA      H    8   7.822  20.746  12.746  0.1812  0.4251  0.0608
    2ALA     CA    9   7.949  20.577  12.706  0.4692 -0.2824  1.0414
    2ALA     HA   10   7.913  20.479  12.673 -1.3531  1.3564 -2.4481
    2ALA     CB   11   8.073  20.617  12.623  1.2818 -1.0237  0.3740
    2ALA    HB1   12   8.147  20.538  12.634  2.5694  0.1759  0.6200
    2ALA    HB2   13   8.068  20.634  12.516 -0.0802 -6.0345 -0.6395
    2ALA    HB3   14   8.102  20.713  12.666 -6.0386  3.2651 -2.2693
    2ALA      C   15   7.987  20.578  12.855  0.2584  0.3053 -0.4933
    2ALA      O   16   7.968  20.673  12.930 -1.2071 -0.0096 -0.1132
    3ALA      N   17   8.034  20.466  12.906 -1.0218 -0.1360  0.9685
    3ALA      H   18   8.034  20.395  12.834  2.0871 -2.5853  3.0096
    3ALA     CA   19   8.094  20.435  13.031 -1.6642  0.6986  0.2814
    3ALA     HA   20   8.095  20.327  13.041 -1.0685  0.8106  1.5307
    3ALA     CB   21   8.234  20.509  13.056  1.4537  0.2579  1.5254
    3ALA    HB1   22   8.197  20.607  13.088  0.6622  0.2252  0.7665
    3ALA    HB2   23   8.293  20.459  13.133 -1.6296 -6.4900  0.2362
    3ALA    HB3   24   8.289  20.512  12.962 -1.5716 -3.2582 -0.6664
    3ALA      C   25   8.015  20.457  13.167  1.3135  0.8766 -0.9757
    3ALA      O   26   8.032  20.396  13.271 -0.2777  0.5145 -0.2075
    4NME      N   27   7.901  20.534  13.180  0.7815  0.5680 -0.0415
    4NME      H   28   7.875  20.578  13.093 -1.4417 -3.7253 -1.8364
    4NME    CH3   29   7.826  20.547  13.304  0.6506  0.4787  0.1011
    4NME   HH31   30   7.902  20.547  13.381  1.8934 -0.9856 -1.0628
    4NME   HH32   31   7.768  20.638  13.287  2.6728  1.6810 -0.7046
    4NME   HH33   32   7.777  20.451  13.283  5.8341 -2.5344  0.1911
  20.99041  20.99041  20.99041
