Protein
   42
    1ACE   HH31    1  10.149   8.575  10.280  0.0658 -0.2383 -1.5565
    1ACE    CH3    2  10.243   8.528  10.249  0.3588  0.1270 -1.2328
    1ACE   HH32    3  10.238   8.420  10.232 -1.3790  0.1203 -0.8168
    1ACE   HH33    4  10.312   8.540  10.333  0.4097 -0.7055 -1.1401
    1ACE      C    5  10.323   8.597  10.146  0.2952 -0.6115  0.2943
    1ACE      O    6  10.442   8.622  10.171 -0.2445 -0.4150 -0.0842
    2ALA      N    7  10.275   8.609  10.024 -0.3344  0.1634  0.6103
    2ALA      H    8  10.176   8.596  10.008 -0.2048  2.0071 -2.3475
    2ALA     CA    9  10.352   8.660   9.912 -0.0055 -0.1872 -0.3327
    2ALA     HA   10  10.435   8.724   9.943 -0.6984  1.6589 -2.0934
    2ALA     CB   11  10.419   8.541   9.837 -0.0566  0.7106  0.8089
    2ALA    HB1   12  10.342   8.471   9.804 -1.2176  0.9851  2.7914
    2ALA    HB2   13  10.483   8.577   9.756  0.1597 -0.3898  0.4854
    2ALA    HB3   14  10.476   8.491   9.914 -0.3708  0.9430  1.1931
    2ALA      C   15  10.254   8.744   9.830  0.3751  0.3482  0.8209
    2ALA      O   16  10.134   8.758   9.860 -0.4887  0.9253 -0.3202
    3ALA      N   17  10.310   8.811   9.734  0.4907  0.4457  0.0824
    3ALA      H   18  10.411   8.805   9.741  0.6043  1.8894  0.0115
    3ALA     CA   19  10.254   8.883   9.614  0.4070  0.2089  0.8623
    3ALA     HA   20  10.273   8.990   9.618  1.4194  0.4417 -4.1305
    3ALA     CB   21  10.345   8.832   9.501  0.2421 -0.0575  0.1265
    3ALA    HB1   22  10.302   8.875   9.411  1.0651 -1.9359 -1.2474
    3ALA    HB2   23  10.443   8.879   9.514  0.9511 -1.3565 -0.2595
    3ALA    HB3   24  10.339   8.723   9.499 -2.4592  0.0384 -0.3394
    3ALA      C   25  10.102   8.869   9.597  0.3135  0.2854  0.4800
    3ALA      O   26  10.053   8.781   9.524 -0.1122 -0.4322 -0.1382
    4ALA      N   27  10.025   8.951   9.670  0.2463  0.0193  0.3403
    4ALA      H   28  10.063   9.022   9.730 -0.0115 -0.9125  1.6482
    4ALA     CA   29   9.885   8.933   9.700 -0.3458 -0.3803 -0.5653
    4ALA     HA   30   9.879   8.825   9.715 -1.0882 -0.2765  0.0218
    4ALA     CB   31   9.850   9.009   9.837 -0.6617 -0.7282  0.3093
    4ALA    HB1   32   9.930   8.996   9.910  0.7364  1.2447 -0.8064
    4ALA    HB2   33   9.845   9.117   9.822 -0.2948 -0.5088  1.6676
    4ALA    HB3   34   9.752   8.971   9.866  0.3253 -4.3882 -0.6456
    4ALA      C   35   9.791   8.955   9.580 -0.3311 -0.4375 -0.4961
    4ALA      O   36   9.697   9.032   9.599  0.5982 -0.2397  0.2270
    5NME      N   37   9.815   8.906   9.459  0.5845 -0.0330 -0.0801
    5NME      H   38   9.896   8.848   9.441  1.5875  1.3777 -0.2834
    5NME    CH3   39   9.726   8.928   9.345 -0.0389 -0.0863 -0.4622
    5NME   HH31   40   9.701   9.034   9.348 -1.9741 -0.5153  1.0033
    5NME   HH32   41   9.780   8.905   9.253 -0.4112 -0.8231 -0.5045
    5NME   HH33   42   9.630   8.876   9.345  1.1858 -2.5091 -1.7032
  20.91516  20.91516  20.91516
