Protein
   42
    1ACE   HH31    1  15.138   9.035  12.387  1.5622  0.3810  2.5188
    1ACE    CH3    2  15.168   8.931  12.384  0.2532  0.0326  0.5235
    1ACE   HH32    3  15.094   8.854  12.407 -0.3256  0.5639  0.4699
    1ACE   HH33    4  15.247   8.930  12.459 -0.3544  2.9696  1.3100
    1ACE      C    5  15.236   8.900  12.255 -0.0672  0.2921 -0.1468
    1ACE      O    6  15.335   8.964  12.228 -0.3004 -0.5541 -0.3945
    2ALA      N    7  15.191   8.791  12.189 -0.2709 -0.0008  0.1243
    2ALA      H    8  15.129   8.729  12.238 -1.7231  0.7601 -0.6889
    2ALA     CA    9  15.217   8.753  12.046  0.3934 -0.3495 -1.0680
    2ALA     HA   10  15.298   8.680  12.042 -0.4936 -1.3076 -4.0424
    2ALA     CB   11  15.093   8.685  11.984  0.3207 -0.8445  0.0375
    2ALA    HB1   12  15.127   8.655  11.885  2.1681  1.0022  0.0550
    2ALA    HB2   13  15.067   8.605  12.053 -0.9102  0.6621  1.4032
    2ALA    HB3   14  15.009   8.752  11.968  0.5517 -1.0137 -2.1023
    2ALA      C   15  15.266   8.880  11.956 -1.0122  0.1667 -0.0151
    2ALA      O   16  15.196   8.943  11.879  0.0170  0.4158 -0.7281
    3ALA      N   17  15.397   8.917  11.974  0.1157  0.3279 -1.0092
    3ALA      H   18  15.446   8.866  12.046 -1.6458 -1.2395 -0.8282
    3ALA     CA   19  15.466   9.027  11.907  0.2409  0.2773  0.2402
    3ALA     HA   20  15.480   9.003  11.802 -1.4622  3.3141 -0.8077
    3ALA     CB   21  15.400   9.163  11.925 -0.0944 -0.7321  0.0100
    3ALA    HB1   22  15.311   9.158  11.862  0.9897 -0.0362 -1.6748
    3ALA    HB2   23  15.375   9.186  12.028 -1.7139 -0.7509 -0.3495
    3ALA    HB3   24  15.479   9.226  11.884  1.3228 -1.4509  1.5478
    3ALA      C   25  15.604   9.033  11.981 -0.6790  0.1146  0.1924
    3ALA      O   26  15.704   9.070  11.918 -0.0666  0.3970 -0.3668
    4ALA      N   27  15.613   8.991  12.110  0.4933 -0.1645 -0.0193
    4ALA      H   28  15.527   8.953  12.147  0.6141 -0.4036  0.0136
    4ALA     CA   29  15.721   8.963  12.201  0.2974 -0.3062  0.6287
    4ALA     HA   30  15.708   8.856  12.219 -1.4929  0.1997  2.7079
    4ALA     CB   31  15.857   8.968  12.132 -0.2778  0.9050  0.8748
    4ALA    HB1   32  15.938   8.941  12.200  0.4338  0.5613 -0.0804
    4ALA    HB2   33  15.867   8.899  12.048 -0.0696  0.2978  1.3818
    4ALA    HB3   34  15.885   9.070  12.106 -0.6424  0.7448 -0.1728
    4ALA      C   35  15.707   9.050  12.326  0.7143 -0.1666  0.3715
    4ALA      O   36  15.789   9.037  12.414 -0.2641  0.0502  0.1241
    5NME      N   37  15.603   9.129  12.339  0.3105 -0.4610 -0.0230
    5NME      H   38  15.533   9.140  12.267  0.0613  1.4891  0.4941
    5NME    CH3   39  15.581   9.215  12.452  0.2121  0.2484 -0.2317
    5NME   HH31   40  15.488   9.185  12.501  0.2035  1.9935  0.9212
    5NME   HH32   41  15.667   9.222  12.519  2.0872 -0.9219 -2.3608
    5NME   HH33   42  15.575   9.318  12.418 -1.3065 -1.2531 -5.3540
  20.91516  20.91516  20.91516
