Protein
   42
    1ACE   HH31    1   9.504   6.464  11.626  0.4319 -0.6495  0.1083
    1ACE    CH3    2   9.483   6.363  11.663 -0.2630 -0.6786 -0.3645
    1ACE   HH32    3   9.497   6.299  11.577  1.2210 -1.5552  0.5058
    1ACE   HH33    4   9.377   6.353  11.688 -0.6485 -0.6701 -1.8663
    1ACE      C    5   9.575   6.319  11.785 -0.1000  0.4788 -0.0134
    1ACE      O    6   9.643   6.404  11.842 -0.2877 -0.3483 -0.2061
    2ALA      N    7   9.577   6.187  11.812  0.3811  0.1276  0.0735
    2ALA      H    8   9.512   6.127  11.763 -0.0958 -1.1201  2.1247
    2ALA     CA    9   9.683   6.111  11.879 -0.5975 -0.5556 -0.5926
    2ALA     HA   10   9.680   6.138  11.984 -0.5950 -2.9934  0.0912
    2ALA     CB   11   9.664   5.959  11.873  0.6470 -0.1779  1.1430
    2ALA    HB1   12   9.719   5.906  11.951 -1.4122 -3.2195  0.7410
    2ALA    HB2   13   9.559   5.932  11.887  0.3865  0.2997  0.2333
    2ALA    HB3   14   9.680   5.925  11.770 -0.9995  1.1023  0.4066
    2ALA      C   15   9.816   6.159  11.814  0.7499 -0.2638  0.7365
    2ALA      O   16   9.848   6.112  11.707 -0.5982  0.0209  0.6317
    3ALA      N   17   9.897   6.247  11.878 -0.5330  0.0917 -0.2645
    3ALA      H   18   9.848   6.287  11.957 -0.6243  1.8031 -1.1365
    3ALA     CA   19  10.022   6.305  11.832 -0.6020  0.2341 -0.5374
    3ALA     HA   20  10.066   6.354  11.919  0.4177  1.5463 -1.7693
    3ALA     CB   21  10.128   6.203  11.798 -0.4876  0.5424  0.7462
    3ALA    HB1   22  10.218   6.254  11.764 -0.7572  0.6689  0.2147
    3ALA    HB2   23  10.149   6.142  11.886 -1.1118  0.0737  0.5745
    3ALA    HB3   24  10.110   6.136  11.715  1.4421  2.1010 -1.0205
    3ALA      C   25  10.008   6.421  11.735  0.3843 -0.2250  0.1572
    3ALA      O   26  10.104   6.460  11.675 -0.7062  0.1298  0.7172
    4ALA      N   27   9.889   6.492  11.725  0.0886 -0.1408 -0.0806
    4ALA      H   28   9.820   6.452  11.786  2.6249 -0.4616  2.8270
    4ALA     CA   29   9.859   6.621  11.666  0.0214 -0.4468 -0.4659
    4ALA     HA   30   9.751   6.628  11.667  0.0856  0.9643 -0.7135
    4ALA     CB   31   9.927   6.729  11.749 -0.1483  0.3536  0.1528
    4ALA    HB1   32   9.897   6.824  11.705 -0.1112 -0.2821 -1.2826
    4ALA    HB2   33   9.896   6.732  11.853 -0.4900  2.7764  0.0541
    4ALA    HB3   34  10.036   6.725  11.753  0.0684  3.3770 -0.0086
    4ALA      C   35   9.882   6.639  11.507  0.3601  0.3577 -0.0273
    4ALA      O   36   9.812   6.708  11.443  0.0472  0.1270  0.1710
    5NME      N   37   9.978   6.570  11.447  0.2828  0.9401 -0.0513
    5NME      H   38  10.039   6.515  11.505  1.2192  1.1664 -0.7973
    5NME    CH3   39  10.021   6.576  11.308  0.4741 -0.5459 -0.7894
    5NME   HH31   40   9.971   6.656  11.253 -1.6601 -1.4449 -0.2363
    5NME   HH32   41  10.128   6.594  11.316  0.2123  0.1292  3.7541
    5NME   HH33   42  10.008   6.490  11.243  3.1728 -0.7946 -1.0979
  20.91516  20.91516  20.91516
