Protein
   42
    1ACE   HH31    1   8.351   5.640  14.182 -0.7913 -2.5019  2.2295
    1ACE    CH3    2   8.433   5.571  14.165  0.8459 -0.1072 -0.5622
    1ACE   HH32    3   8.399   5.495  14.094 -1.1823  0.2098 -0.0004
    1ACE   HH33    4   8.445   5.528  14.264 -1.3078 -2.2129 -1.1231
    1ACE      C    5   8.555   5.644  14.111 -0.1376  0.0390  0.2388
    1ACE      O    6   8.549   5.754  14.067 -0.3186 -0.1100 -0.4818
    2ALA      N    7   8.675   5.579  14.121  0.8163  0.5988 -0.0724
    2ALA      H    8   8.677   5.482  14.149  0.2576 -0.6152 -3.7910
    2ALA     CA    9   8.812   5.638  14.096  0.4767 -0.8318 -0.4049
    2ALA     HA   10   8.886   5.563  14.120  0.3767 -0.3856  1.4594
    2ALA     CB   11   8.828   5.676  13.949  0.3157  0.6733  0.1749
    2ALA    HB1   12   8.933   5.673  13.919  0.5464 -2.5791  0.9039
    2ALA    HB2   13   8.778   5.602  13.887  2.8097 -1.3990  0.3823
    2ALA    HB3   14   8.778   5.770  13.927 -1.4551 -0.2627  0.0360
    2ALA      C   15   8.845   5.759  14.191 -0.0800 -0.1351  0.0587
    2ALA      O   16   8.962   5.780  14.220 -0.2165  0.7273 -0.1077
    3ALA      N   17   8.749   5.829  14.259  0.4409  0.8796  0.3377
    3ALA      H   18   8.656   5.805  14.227  0.2105  0.5024  1.2220
    3ALA     CA   19   8.752   5.933  14.355 -0.0535 -0.1892 -0.8556
    3ALA     HA   20   8.657   5.981  14.329 -0.1286 -0.4627 -1.1001
    3ALA     CB   21   8.731   5.873  14.496 -0.2532  0.2173  0.1899
    3ALA    HB1   22   8.824   5.827  14.528 -0.3758 -1.6397 -1.9285
    3ALA    HB2   23   8.710   5.956  14.563 -0.8312 -0.7535  1.2562
    3ALA    HB3   24   8.649   5.801  14.502  0.9892 -1.1530  1.9574
    3ALA      C   25   8.864   6.038  14.339  0.1515 -0.1080 -0.0696
    3ALA      O   26   8.955   6.051  14.416 -0.4707 -0.1042  0.1476
    4ALA      N   27   8.853   6.134  14.244 -0.3610 -0.4125  0.0228
    4ALA      H   28   8.763   6.155  14.205 -1.0909  0.8313  2.2504
    4ALA     CA   29   8.950   6.231  14.191  0.3336  0.4917 -0.4233
    4ALA     HA   30   8.986   6.297  14.269  1.5896 -0.2207 -0.3732
    4ALA     CB   31   9.068   6.148  14.142  0.1744  0.4184  0.1133
    4ALA    HB1   32   9.100   6.068  14.209  0.9044 -1.0487 -1.8884
    4ALA    HB2   33   9.041   6.099  14.048 -0.1489  0.4080  0.2102
    4ALA    HB3   34   9.153   6.211  14.115  0.4975  0.4348  1.1256
    4ALA      C   35   8.888   6.324  14.083 -0.2503  0.1144  0.0744
    4ALA      O   36   8.784   6.295  14.031  0.0163  0.4119  0.1576
    5NME      N   37   8.950   6.430  14.044  0.0102 -0.3765 -0.4529
    5NME      H   38   9.038   6.445  14.090 -0.7367 -0.5121  1.0615
    5NME    CH3   39   8.905   6.531  13.955  0.3699 -0.0032 -0.1388
    5NME   HH31   40   8.815   6.583  13.988  0.4422  0.2516 -0.3191
    5NME   HH32   41   8.983   6.603  13.928  0.9667 -0.0077  1.4667
    5NME   HH33   42   8.892   6.476  13.862  2.3716 -1.0211  0.1316
  20.91516  20.91516  20.91516
