Protein
   42
    1ACE   HH31    1  10.056  10.681  10.351 -1.0247  1.5729  0.8111
    1ACE    CH3    2   9.986  10.605  10.385 -0.1347  0.2561 -0.2285
    1ACE   HH32    3   9.924  10.657  10.458 -0.5752  0.9113 -1.0514
    1ACE   HH33    4  10.044  10.525  10.431 -0.1879 -0.5076 -1.4689
    1ACE      C    5   9.906  10.556  10.263 -0.2664 -0.0906 -0.0705
    1ACE      O    6   9.793  10.598  10.250 -0.2534  0.3706  0.1781
    2ALA      N    7   9.964  10.451  10.198 -0.0907 -0.5049 -0.7964
    2ALA      H    8  10.056  10.421  10.228 -0.7197 -0.8979  0.7809
    2ALA     CA    9   9.902  10.372  10.088  0.1462 -0.4790  0.5947
    2ALA     HA   10   9.840  10.444  10.036  0.2477  0.2683  1.4749
    2ALA     CB   11  10.012  10.341   9.993  0.0785 -0.3821 -0.1134
    2ALA    HB1   12  10.063  10.255  10.036 -1.6294 -0.3129  2.1718
    2ALA    HB2   13   9.963  10.303   9.903 -0.6894 -2.8896  1.2673
    2ALA    HB3   14  10.082  10.421   9.969  0.1587 -0.2741  0.4656
    2ALA      C   15   9.816  10.253  10.135 -0.5826 -0.3538 -0.1928
    2ALA      O   16   9.832  10.137  10.102 -0.4762 -0.1559  0.4218
    3ALA      N   17   9.725  10.286  10.224 -0.0757  0.2502 -0.4255
    3ALA      H   18   9.729  10.369  10.281  1.4759 -0.4830  0.6024
    3ALA     CA   19   9.596  10.218  10.226  1.4679 -0.0586  0.1516
    3ALA     HA   20   9.615  10.113  10.250  0.9225 -0.7020 -1.9718
    3ALA     CB   21   9.498  10.272  10.334  0.4173 -0.8409  0.0756
    3ALA    HB1   22   9.470  10.370  10.296  2.0061 -0.4232 -0.1068
    3ALA    HB2   23   9.407  10.213  10.338  0.6346 -1.4263 -2.4600
    3ALA    HB3   24   9.544  10.282  10.432 -2.6231  2.6780  1.3735
    3ALA      C   25   9.531  10.217  10.081  0.1298 -0.3081 -0.1597
    3ALA      O   26   9.586  10.274   9.990  0.2975 -0.5277 -0.7602
    4ALA      N   27   9.419  10.147  10.064 -0.3429 -0.6891  0.4435
    4ALA      H   28   9.385  10.091  10.141 -0.1931 -1.5698 -0.1133
    4ALA     CA   29   9.342  10.145   9.938 -0.7190 -0.4765 -0.0915
    4ALA     HA   30   9.341  10.246   9.896 -1.6188 -0.7617 -0.7805
    4ALA     CB   31   9.406  10.042   9.837 -0.0647  0.2257 -0.8524
    4ALA    HB1   32   9.364  10.059   9.738  1.1759 -2.0598 -1.8753
    4ALA    HB2   33   9.515  10.042   9.839  0.0460 -2.1823  2.7987
    4ALA    HB3   34   9.383   9.944   9.879  1.1017  0.1707 -0.2984
    4ALA      C   35   9.194  10.108   9.973  0.2919  0.7686 -0.6923
    4ALA      O   36   9.161  10.059  10.089 -0.1100  0.4226  0.6904
    5NME      N   37   9.091  10.137   9.889 -0.7930 -0.3675 -0.1002
    5NME      H   38   9.113  10.213   9.826 -2.7629 -1.1815 -1.9102
    5NME    CH3   39   8.955  10.126   9.933  0.5774  0.6879 -0.2138
    5NME   HH31   40   8.894  10.179   9.861  0.9872 -1.0684 -1.9573
    5NME   HH32   41   8.929  10.020   9.943  2.4347  0.2417  0.2649
    5NME   HH33   42   8.943  10.164  10.034  2.0653 -0.0336  0.2712
  20.91516  20.91516  20.91516
