Protein
   32
    1ACE   HH31    1  14.749  11.490   9.621 -0.4429 -0.9404 -1.0909
    1ACE    CH3    2  14.743  11.569   9.546  0.1188  0.4392  0.2699
    1ACE   HH32    3  14.705  11.532   9.451 -0.1092  0.9151  0.1753
    1ACE   HH33    4  14.848  11.587   9.522  1.0973  1.7214  4.5573
    1ACE      C    5  14.663  11.688   9.600 -0.3467 -0.5195  0.5742
    1ACE      O    6  14.555  11.716   9.553 -0.3421  0.1254  0.3556
    2ALA      N    7  14.742  11.763   9.674  0.4703 -0.2667 -1.0236
    2ALA      H    8  14.836  11.734   9.693  0.3509 -1.2657 -1.8529
    2ALA     CA    9  14.716  11.888   9.739  0.0259  0.1569 -0.4356
    2ALA     HA   10  14.660  11.958   9.677 -1.3948 -0.5159  0.0578
    2ALA     CB   11  14.632  11.862   9.870  0.7611 -0.5348 -0.0392
    2ALA    HB1   12  14.545  11.808   9.834 -0.2840  2.4399 -2.4350
    2ALA    HB2   13  14.679  11.804   9.950  1.8451 -1.9499 -1.6302
    2ALA    HB3   14  14.601  11.957   9.914 -0.0695  0.0691 -1.8494
    2ALA      C   15  14.851  11.951   9.777  0.4257 -0.4520  0.9780
    2ALA      O   16  14.948  11.881   9.798 -0.6114 -0.0952  0.0178
    3ALA      N   17  14.867  12.083   9.766  0.4518 -0.6266 -0.5557
    3ALA      H   18  14.786  12.144   9.762  2.7782  2.8550  0.6863
    3ALA     CA   19  14.989  12.159   9.801  0.0857 -0.0726 -0.1446
    3ALA     HA   20  15.070  12.117   9.741 -0.2993  0.9013 -1.3892
    3ALA     CB   21  14.968  12.303   9.746 -0.2632  0.1185 -0.0681
    3ALA    HB1   22  14.970  12.294   9.637 -1.8490  0.5803 -0.1640
    3ALA    HB2   23  14.867  12.334   9.774 -0.8045 -0.5109 -1.2393
    3ALA    HB3   24  15.041  12.374   9.784  1.2101 -1.3389 -0.0828
    3ALA      C   25  15.022  12.173   9.958 -0.0659  0.4179 -0.8553
    3ALA      O   26  14.937  12.216  10.032  0.2106  0.3124 -0.2684
    4NME      N   27  15.146  12.148   9.997  0.2600 -0.0395  0.2340
    4NME      H   28  15.215  12.134   9.925 -1.9532 -0.6316 -1.8873
    4NME    CH3   29  15.180  12.139  10.140 -0.3276  0.5216 -0.3014
    4NME   HH31   30  15.275  12.088  10.152  1.0188  2.5126 -1.7188
    4NME   HH32   31  15.195  12.239  10.183 -0.1848 -0.2001  1.3724
    4NME   HH33   32  15.110  12.079  10.199  0.5213 -0.2097 -0.0307
  20.99041  20.99041  20.99041
