Protein
   32
    1ACE   HH31    1   9.939   4.719  12.220 -0.3380  1.1646  1.5871
    1ACE    CH3    2   9.846   4.663  12.233 -0.0426  0.0985 -0.5321
    1ACE   HH32    3   9.783   4.734  12.286  0.9240  0.0446  0.7356
    1ACE   HH33    4   9.863   4.576  12.297 -0.2342  0.3318 -0.1604
    1ACE      C    5   9.783   4.625  12.110  0.1007  0.8532  0.1862
    1ACE      O    6   9.806   4.675  11.999  0.2801 -0.4296 -0.1403
    2ALA      N    7   9.682   4.535  12.123 -0.9406  0.3796 -0.4741
    2ALA      H    8   9.654   4.503  12.215  0.9184 -0.0007  0.0134
    2ALA     CA    9   9.589   4.496  12.014 -0.4019  0.8438 -0.3646
    2ALA     HA   10   9.614   4.554  11.925 -2.0145  2.4096  0.1653
    2ALA     CB   11   9.595   4.345  11.997  0.2501  0.8546 -1.2161
    2ALA    HB1   12   9.547   4.314  11.905 -0.3518 -0.7697 -0.4033
    2ALA    HB2   13   9.698   4.309  12.001  0.6651  2.0605 -0.7301
    2ALA    HB3   14   9.544   4.300  12.083 -0.5331 -0.3026 -2.2465
    2ALA      C   15   9.446   4.549  12.041 -0.4501  0.2558 -0.1722
    2ALA      O   16   9.418   4.613  12.141 -0.0712 -0.0390  0.4331
    3ALA      N   17   9.350   4.505  11.961  0.0770  0.5457 -0.2778
    3ALA      H   18   9.380   4.431  11.899 -2.7503 -0.7249 -0.2830
    3ALA     CA   19   9.207   4.514  11.999  0.5562  0.2704  0.3084
    3ALA     HA   20   9.168   4.614  12.016  0.3132 -0.0528  1.7416
    3ALA     CB   21   9.122   4.464  11.877 -0.1545  0.2302 -0.0806
    3ALA    HB1   22   9.149   4.361  11.856  0.2514  0.6768 -1.9652
    3ALA    HB2   23   9.017   4.459  11.905 -0.7616 -0.4755 -2.2335
    3ALA    HB3   24   9.140   4.534  11.795 -2.0357  2.8864  1.5668
    3ALA      C   25   9.180   4.440  12.131 -0.1355 -0.3616  0.1850
    3ALA      O   26   9.248   4.338  12.154  0.1589 -0.2773 -0.5493
    4NME      N   27   9.093   4.490  12.215  0.0281 -0.2718  0.3856
    4NME      H   28   9.047   4.573  12.181 -1.0797  0.4524  3.4303
    4NME    CH3   29   9.063   4.446  12.350  1.0161  0.2719 -0.2221
    4NME   HH31   30   8.975   4.504  12.377  0.2925 -1.7429  2.0501
    4NME   HH32   31   9.048   4.338  12.353 -0.8806  0.4328 -2.0743
    4NME   HH33   32   9.138   4.481  12.422  0.0627  3.2717 -0.5186
  20.99041  20.99041  20.99041
