Protein
   42
    1ACE   HH31    1  10.379   5.992  14.354  0.8579  1.0456 -1.2090
    1ACE    CH3    2  10.457   5.921  14.384 -0.1681  0.3085 -0.1474
    1ACE   HH32    3  10.534   5.990  14.420 -0.9325  1.4190 -0.5652
    1ACE   HH33    4  10.493   5.876  14.291  0.1077  0.2223  0.0037
    1ACE      C    5  10.415   5.819  14.480  0.5334 -0.1402  0.4769
    1ACE      O    6  10.400   5.699  14.450  0.1065 -0.0887 -0.6965
    2ALA      N    7  10.370   5.857  14.597  0.2175  0.1085 -0.2284
    2ALA      H    8  10.380   5.956  14.613 -1.2397  0.0864  0.9451
    2ALA     CA    9  10.306   5.777  14.699  0.1479  0.4103  0.5657
    2ALA     HA   10  10.359   5.683  14.717  2.0847  1.3203 -0.1880
    2ALA     CB   11  10.323   5.855  14.831  0.4009  0.2188  0.0944
    2ALA    HB1   12  10.284   5.795  14.913 -0.7044 -0.3674 -0.8228
    2ALA    HB2   13  10.426   5.890  14.836  0.3268  0.3963  0.4707
    2ALA    HB3   14  10.257   5.941  14.830 -0.6221 -0.5380  0.7720
    2ALA      C   15  10.161   5.747  14.671 -0.1877 -0.0271  0.0963
    2ALA      O   16  10.092   5.825  14.611 -0.0716 -0.1833  0.4714
    3ALA      N   17  10.122   5.625  14.698 -0.0794  0.2078  0.0606
    3ALA      H   18  10.030   5.602  14.661  0.2175 -1.3465  0.2096
    3ALA     CA   19  10.182   5.513  14.764 -0.0198  0.1862  0.2396
    3ALA     HA   20  10.262   5.549  14.830  1.8414 -1.9590 -0.6815
    3ALA     CB   21  10.069   5.447  14.847  0.0023  0.4414 -0.6067
    3ALA    HB1   22  10.045   5.518  14.926  1.5209  0.5989 -0.2661
    3ALA    HB2   23   9.987   5.409  14.785 -1.5853  3.4454 -0.4781
    3ALA    HB3   24  10.119   5.365  14.899 -1.2246  1.5667  2.6044
    3ALA      C   25  10.250   5.402  14.664 -0.5736  0.3996  0.0314
    3ALA      O   26  10.308   5.307  14.717  0.4240  0.6953 -0.4449
    4ALA      N   27  10.239   5.418  14.531 -0.3410  0.1493  0.5897
    4ALA      H   28  10.193   5.498  14.492  2.6407  0.5557 -2.6505
    4ALA     CA   29  10.283   5.309  14.445 -0.4922 -0.1589  0.7600
    4ALA     HA   30  10.302   5.222  14.508  1.5141  1.5272  2.6628
    4ALA     CB   31  10.174   5.272  14.343  0.2849 -0.0195  0.1324
    4ALA    HB1   32  10.149   5.347  14.268 -0.8522 -0.5407 -0.0285
    4ALA    HB2   33  10.206   5.179  14.295 -1.7963 -0.4362 -0.5148
    4ALA    HB3   34  10.082   5.258  14.400 -0.5343 -0.6699 -1.2875
    4ALA      C   35  10.424   5.326  14.379  0.3320  0.1649 -0.7291
    4ALA      O   36  10.467   5.234  14.306  0.6291 -0.1590 -0.7237
    5NME      N   37  10.492   5.437  14.399  0.2298  0.3428  0.4763
    5NME      H   38  10.457   5.504  14.466  3.0242  0.5910  1.7864
    5NME    CH3   39  10.627   5.459  14.353 -0.4993 -0.3040 -0.3851
    5NME   HH31   40  10.616   5.483  14.247 -0.6602  0.7796 -0.1294
    5NME   HH32   41  10.674   5.542  14.406  0.3472 -2.5738  2.6592
    5NME   HH33   42  10.686   5.371  14.377  2.5321  1.8228  0.5750
  20.91516  20.91516  20.91516
