Protein
   32
    1ACE   HH31    1  14.374  11.628  11.937  2.7045 -0.7665 -1.6954
    1ACE    CH3    2  14.340  11.529  11.906 -0.2459 -0.2935 -0.2881
    1ACE   HH32    3  14.427  11.474  11.871  0.3742 -1.2949  2.5625
    1ACE   HH33    4  14.257  11.555  11.840 -0.8013  0.1164  0.5464
    1ACE      C    5  14.283  11.443  12.017  0.0118 -0.1849  0.6961
    1ACE      O    6  14.353  11.414  12.113  0.1510 -0.0288 -0.5484
    2ALA      N    7  14.156  11.400  12.007  0.3442 -0.0543 -0.1258
    2ALA      H    8  14.106  11.438  11.928  0.4596 -0.2459 -0.2910
    2ALA     CA    9  14.082  11.300  12.096  0.6725 -0.4910  0.6256
    2ALA     HA   10  13.981  11.284  12.060  0.0611  1.7776  1.1932
    2ALA     CB   11  14.152  11.166  12.083 -0.1321  0.9254  0.6768
    2ALA    HB1   12  14.147  11.136  11.979  0.0654 -0.6267  1.0986
    2ALA    HB2   13  14.257  11.182  12.109  0.3426  1.7014 -1.4753
    2ALA    HB3   14  14.107  11.089  12.146 -1.0973 -1.8668 -3.0410
    2ALA      C   15  14.063  11.353  12.244  0.7337 -0.1467  0.0346
    2ALA      O   16  14.039  11.273  12.331  0.2120  0.2182  0.4829
    3ALA      N   17  14.060  11.481  12.269  0.0851 -0.5447 -0.6340
    3ALA      H   18  14.079  11.547  12.194  2.9875  0.9555  1.2315
    3ALA     CA   19  14.042  11.534  12.408 -0.7879 -0.3639  0.0649
    3ALA     HA   20  14.069  11.464  12.488 -1.7216  1.2694  1.8940
    3ALA     CB   21  14.136  11.652  12.427 -0.1120 -0.3977  0.2014
    3ALA    HB1   22  14.238  11.621  12.404  0.5361  1.1519  0.8288
    3ALA    HB2   23  14.098  11.723  12.354 -3.5334 -2.4902 -0.2135
    3ALA    HB3   24  14.128  11.698  12.526 -0.1536  1.1598 -0.5098
    3ALA      C   25  13.890  11.561  12.430 -0.0636  0.1835  0.4145
    3ALA      O   26  13.836  11.660  12.383  0.3809  0.4079  0.1539
    4NME      N   27  13.821  11.466  12.490  0.7025  0.3015 -0.2957
    4NME      H   28  13.872  11.385  12.523 -0.7257 -0.0269  1.2189
    4NME    CH3   29  13.681  11.465  12.524 -0.4802  0.0116 -0.1684
    4NME   HH31   30  13.646  11.362  12.514  0.9310 -0.3269 -2.3058
    4NME   HH32   31  13.673  11.504  12.626  0.8426  2.2033 -0.8434
    4NME   HH33   32  13.626  11.526  12.453 -0.6093  0.5316  0.3715
  20.99041  20.99041  20.99041
