Protein
   42
    1ACE   HH31    1  11.108   8.359  11.816  1.3649 -1.6812 -0.5976
    1ACE    CH3    2  11.170   8.401  11.895 -0.8991  0.2290  0.2807
    1ACE   HH32    3  11.255   8.453  11.852 -1.5873  1.2574  0.1111
    1ACE   HH33    4  11.199   8.313  11.952 -0.4570  1.1060  1.4642
    1ACE      C    5  11.080   8.491  11.973 -0.5576  0.3540 -0.0657
    1ACE      O    6  11.116   8.606  11.994  0.4207 -0.9784  0.1321
    2ALA      N    7  10.965   8.440  12.034 -0.7165 -0.0650 -0.2768
    2ALA      H    8  10.944   8.344  12.014 -0.9995 -0.2480  0.8185
    2ALA     CA    9  10.879   8.500  12.143 -0.2137 -0.0184  0.4493
    2ALA     HA   10  10.890   8.425  12.222  2.5208 -1.5289 -1.2222
    2ALA     CB   11  10.925   8.633  12.210 -0.1805  0.9269  0.6863
    2ALA    HB1   12  11.025   8.620  12.252 -0.1328  0.8897  0.5705
    2ALA    HB2   13  10.916   8.717  12.141 -1.3552  1.2536  1.2100
    2ALA    HB3   14  10.859   8.655  12.293 -1.0409 -2.7755  1.1656
    2ALA      C   15  10.729   8.498  12.096  0.1582 -0.0945  0.2305
    2ALA      O   16  10.664   8.394  12.126  0.0941 -0.4601 -0.0318
    3ALA      N   17  10.687   8.602  12.019  0.8346  0.3791 -0.1692
    3ALA      H   18  10.749   8.681  12.010  0.5927  0.6687  0.6078
    3ALA     CA   19  10.585   8.593  11.913  0.3890  0.2547 -0.6564
    3ALA     HA   20  10.490   8.568  11.960  0.3725  1.5398  0.0662
    3ALA     CB   21  10.563   8.729  11.849 -0.4512 -0.2653 -0.6487
    3ALA    HB1   22  10.492   8.714  11.767  0.4044 -0.7475 -1.3192
    3ALA    HB2   23  10.521   8.798  11.922  0.4003  0.1275 -0.5202
    3ALA    HB3   24  10.657   8.770  11.812  1.0525  1.1043  4.0523
    3ALA      C   25  10.619   8.479  11.811  0.4288 -0.0010  1.1250
    3ALA      O   26  10.661   8.505  11.696 -0.6752 -0.0751 -0.6133
    4ALA      N   27  10.595   8.357  11.858 -0.6417  0.1521 -0.2659
    4ALA      H   28  10.559   8.359  11.953  1.2960  3.0686  0.5226
    4ALA     CA   29  10.643   8.223  11.813  0.1949  0.2169 -0.0604
    4ALA     HA   30  10.669   8.158  11.897  0.8818  0.7299  0.1271
    4ALA     CB   31  10.520   8.165  11.737 -0.3510 -0.3926  0.6380
    4ALA    HB1   32  10.484   8.236  11.663 -1.3631 -0.3670  1.1473
    4ALA    HB2   33  10.556   8.076  11.685 -0.8001 -0.2406  0.0474
    4ALA    HB3   34  10.447   8.138  11.813  0.7544 -0.5239  1.6844
    4ALA      C   35  10.773   8.231  11.726  0.3444 -0.2972  0.2030
    4ALA      O   36  10.882   8.241  11.779 -0.1945 -0.4008  0.0369
    5NME      N   37  10.762   8.229  11.592  0.4479 -0.3456  0.0253
    5NME      H   38  10.670   8.215  11.552 -0.0622 -1.1826  1.4133
    5NME    CH3   39  10.879   8.235  11.505 -0.6963 -0.2514  0.3240
    5NME   HH31   40  10.974   8.231  11.560 -0.4297  0.6637 -0.0497
    5NME   HH32   41  10.879   8.157  11.430 -0.6156  0.6668 -0.6477
    5NME   HH33   42  10.874   8.333  11.457  0.2712  0.0188  0.7415
  20.91516  20.91516  20.91516
