Protein
   32
    1ACE   HH31    1   3.661   2.760  15.593 -1.3662 -0.4703 -1.3215
    1ACE    CH3    2   3.719   2.682  15.543  0.6108 -0.1145  0.3122
    1ACE   HH32    3   3.819   2.726  15.534  1.4426 -1.9389 -0.1308
    1ACE   HH33    4   3.681   2.653  15.445 -0.4935  1.0177  0.3746
    1ACE      C    5   3.720   2.559  15.629  0.5896 -0.2902 -0.4687
    1ACE      O    6   3.790   2.559  15.731  0.1634  0.3674 -0.2167
    2ALA      N    7   3.645   2.459  15.583  0.3688 -0.2440 -0.4260
    2ALA      H    8   3.599   2.472  15.494 -0.7456  0.9998  0.2893
    2ALA     CA    9   3.629   2.332  15.658 -0.2782 -1.1543 -0.3506
    2ALA     HA   10   3.694   2.327  15.746 -0.2446 -2.7234 -0.4447
    2ALA     CB   11   3.486   2.327  15.716  0.2447 -0.4157  0.0566
    2ALA    HB1   12   3.415   2.325  15.633  0.1853 -0.3521  0.1059
    2ALA    HB2   13   3.462   2.231  15.762  0.7150 -0.7528 -0.3839
    2ALA    HB3   14   3.465   2.414  15.777 -0.0949  1.5860 -2.7392
    2ALA      C   15   3.669   2.209  15.583  0.4149  0.0796  0.0142
    2ALA      O   16   3.682   2.212  15.457  0.0918  0.5009  0.2246
    3ALA      N   17   3.683   2.102  15.662  0.4747  0.2696  1.3336
    3ALA      H   18   3.648   2.115  15.756  1.1787  0.5715  1.5607
    3ALA     CA   19   3.702   1.964  15.605  0.5497 -0.3622  1.4719
    3ALA     HA   20   3.685   1.974  15.498 -1.6626 -0.2630  1.7881
    3ALA     CB   21   3.844   1.922  15.615 -0.4808  0.0352 -0.0742
    3ALA    HB1   22   3.870   1.932  15.720 -0.5461  0.9247 -0.1417
    3ALA    HB2   23   3.859   1.818  15.583  1.4118 -0.1679  1.3181
    3ALA    HB3   24   3.908   1.981  15.549 -0.4961 -0.2728 -0.3660
    3ALA      C   25   3.595   1.870  15.667  0.2827 -0.5944  0.0377
    3ALA      O   26   3.475   1.894  15.654 -0.4310 -0.2100  0.0712
    4NME      N   27   3.631   1.780  15.759  0.0772  0.2490  0.5570
    4NME      H   28   3.731   1.783  15.775  0.1254  1.8071  0.1457
    4NME    CH3   29   3.549   1.698  15.838  0.1216 -0.1819  0.1872
    4NME   HH31   30   3.600   1.653  15.923 -1.2190 -1.1505  0.5260
    4NME   HH32   31   3.464   1.754  15.877  1.1566  1.5741  0.0063
    4NME   HH33   32   3.512   1.610  15.784  0.4504 -0.9104  1.1115
  20.99041  20.99041  20.99041
