Protein
   32
    1ACE   HH31    1   6.750  12.549  14.584 -1.3009  1.5443 -2.5405
    1ACE    CH3    2   6.691  12.468  14.541 -0.5901 -0.4192 -0.0377
    1ACE   HH32    3   6.757  12.392  14.499  2.0021  0.7411  1.6744
    1ACE   HH33    4   6.628  12.497  14.458 -1.1368  0.9473  0.8258
    1ACE      C    5   6.606  12.399  14.654 -0.2022 -1.1374 -0.2475
    1ACE      O    6   6.628  12.286  14.693 -0.5994 -0.1454 -0.5362
    2ALA      N    7   6.510  12.478  14.711 -0.4933 -0.0900 -0.0303
    2ALA      H    8   6.492  12.564  14.661  0.6759  0.6326  0.7481
    2ALA     CA    9   6.407  12.426  14.801 -0.4694 -0.4257 -0.6189
    2ALA     HA   10   6.456  12.367  14.878 -0.3146 -0.1452 -0.4989
    2ALA     CB   11   6.348  12.552  14.867 -0.2134 -0.1565 -0.0374
    2ALA    HB1   12   6.429  12.610  14.910 -0.8808  1.3873 -0.7850
    2ALA    HB2   13   6.312  12.619  14.788  1.8484 -1.1961 -1.9886
    2ALA    HB3   14   6.273  12.532  14.943 -0.0287  1.8223  0.7364
    2ALA      C   15   6.301  12.342  14.721 -0.2394  0.2096 -0.6467
    2ALA      O   16   6.270  12.377  14.606 -0.4032 -0.3227 -0.2664
    3ALA      N   17   6.256  12.236  14.791 -0.7069  0.1178  0.3112
    3ALA      H   18   6.301  12.202  14.874  0.5597  0.3903 -0.2490
    3ALA     CA   19   6.165  12.140  14.739  0.1771  0.0125  0.7512
    3ALA     HA   20   6.166  12.054  14.806 -3.2312 -1.5131 -0.8666
    3ALA     CB   21   6.019  12.192  14.735  0.0143 -0.0687  0.3530
    3ALA    HB1   22   6.003  12.267  14.658 -1.1658 -1.0428 -0.3667
    3ALA    HB2   23   5.948  12.113  14.711 -0.5021  1.1652 -2.5064
    3ALA    HB3   24   5.989  12.239  14.829 -1.3680  0.2370 -0.2047
    3ALA      C   25   6.196  12.084  14.594 -0.0878 -0.1793 -0.2004
    3ALA      O   26   6.114  12.031  14.520  0.3034  0.1182  0.1924
    4NME      N   27   6.331  12.068  14.561  0.9918 -0.3106 -1.0393
    4NME      H   28   6.402  12.098  14.625  1.0424 -2.7487  0.1656
    4NME    CH3   29   6.372  12.053  14.419 -0.8958 -0.0755 -0.0418
    4NME   HH31   30   6.301  12.011  14.348 -1.3825 -0.8159  0.8700
    4NME   HH32   31   6.402  12.149  14.377 -1.5771  0.9333  1.6750
    4NME   HH33   32   6.458  11.987  14.414 -1.5188 -0.9981  1.2204
  20.99041  20.99041  20.99041
