Protein
   42
    1ACE   HH31    1   9.581  11.593  13.575 -0.0288  0.7614  0.2511
    1ACE    CH3    2   9.655  11.601  13.495  0.0933 -0.0762  0.2723
    1ACE   HH32    3   9.651  11.694  13.439 -0.9669 -0.8710 -1.0491
    1ACE   HH33    4   9.646  11.511  13.434 -1.0742 -1.0697  1.8299
    1ACE      C    5   9.786  11.606  13.572  0.2741 -0.7063  0.6558
    1ACE      O    6   9.781  11.601  13.693  0.0562 -0.7209 -0.7109
    2ALA      N    7   9.889  11.644  13.505 -0.7744  0.7791  0.4377
    2ALA      H    8   9.879  11.654  13.405  0.0923 -1.0722  0.1208
    2ALA     CA    9  10.017  11.690  13.562  0.3148 -0.4726 -0.5039
    2ALA     HA   10  10.036  11.644  13.659 -1.8885  0.1419  0.3101
    2ALA     CB   11  10.128  11.656  13.460 -0.2555 -0.3318 -0.9278
    2ALA    HB1   12  10.220  11.698  13.500 -1.4954  1.0122  0.6904
    2ALA    HB2   13  10.131  11.549  13.440 -0.1872 -0.1317 -2.0785
    2ALA    HB3   14  10.110  11.721  13.374  0.4342  2.4158  0.8723
    2ALA      C   15  10.012  11.848  13.580 -0.3248  0.3811  0.0032
    2ALA      O   16  10.112  11.910  13.613 -0.1904  0.2192 -0.1192
    3ALA      N   17   9.895  11.910  13.569 -0.1283 -0.4777  0.3446
    3ALA      H   18   9.813  11.852  13.580 -1.5931  1.5304  0.5507
    3ALA     CA   19   9.866  12.052  13.565 -0.6849  0.8004  0.1670
    3ALA     HA   20   9.766  12.070  13.525 -1.2711  3.2415  2.4129
    3ALA     CB   21   9.836  12.093  13.708 -0.1068 -0.5970 -0.1479
    3ALA    HB1   22   9.747  12.038  13.740 -0.9347 -0.4928 -2.1704
    3ALA    HB2   23   9.922  12.083  13.775 -0.2218  0.9210  0.2562
    3ALA    HB3   24   9.812  12.199  13.702  1.5243 -0.1912  0.0031
    3ALA      C   25   9.971  12.128  13.479  0.6387  0.6072  0.9712
    3ALA      O   26   9.944  12.137  13.361  0.9487 -0.6304  0.2078
    4ALA      N   27  10.070  12.201  13.534  0.5770  0.1906  0.1674
    4ALA      H   28  10.073  12.196  13.635 -1.2512 -0.2070  0.2291
    4ALA     CA   29  10.186  12.260  13.470  0.3034 -0.8963 -0.2597
    4ALA     HA   30  10.265  12.254  13.545 -0.0775  1.7756  0.4576
    4ALA     CB   31  10.234  12.179  13.350 -0.4519 -0.3434  0.0686
    4ALA    HB1   32  10.173  12.199  13.261  1.3119  0.0317 -1.1209
    4ALA    HB2   33  10.334  12.214  13.323 -0.5651  0.4463  0.6918
    4ALA    HB3   34  10.231  12.072  13.373  1.4475 -0.3984  0.2564
    4ALA      C   35  10.159  12.409  13.452  0.4703 -0.3571 -0.3537
    4ALA      O   36  10.203  12.489  13.533  0.6085 -0.2707  0.2682
    5NME      N   37  10.066  12.438  13.360  0.3510 -0.0924 -0.1466
    5NME      H   38  10.010  12.364  13.320  0.1615 -0.2439  0.3764
    5NME    CH3   39  10.041  12.577  13.332  0.2828  0.1605 -0.5417
    5NME   HH31   40  10.030  12.638  13.422 -0.9472  0.6735 -1.0225
    5NME   HH32   41  10.127  12.615  13.278  1.1315 -0.4087  0.3716
    5NME   HH33   42   9.956  12.589  13.265 -0.0608  1.6756  0.1256
  20.91516  20.91516  20.91516
