Protein
   42
    1ACE   HH31    1  14.859  13.354  11.552  1.0238 -0.2555 -0.0900
    1ACE    CH3    2  14.803  13.308  11.633  0.9234  0.7728  0.4552
    1ACE   HH32    3  14.826  13.361  11.726  0.6185  1.6099  0.0683
    1ACE   HH33    4  14.829  13.203  11.648 -2.0671 -0.4057 -1.6486
    1ACE      C    5  14.651  13.300  11.621  0.7351  0.2065  0.0971
    1ACE      O    6  14.583  13.357  11.702 -0.3900 -0.0661  0.0463
    2ALA      N    7  14.604  13.233  11.514  0.4620 -0.3025  0.3030
    2ALA      H    8  14.671  13.201  11.445 -1.0713 -0.1554 -1.3266
    2ALA     CA    9  14.465  13.225  11.472  0.1314  0.7526  0.1521
    2ALA     HA   10  14.409  13.265  11.556  2.3455 -0.5958  2.4181
    2ALA     CB   11  14.451  13.330  11.360 -0.6491 -0.1349  0.0256
    2ALA    HB1   12  14.349  13.336  11.321 -0.2441  1.0231 -0.8990
    2ALA    HB2   13  14.478  13.428  11.399 -0.0656 -0.9495  1.7564
    2ALA    HB3   14  14.510  13.297  11.275 -0.3931 -0.6265  0.3972
    2ALA      C   15  14.423  13.078  11.439 -0.2626 -0.6055  0.4148
    2ALA      O   16  14.455  13.031  11.328 -0.2554  0.3581  0.0254
    3ALA      N   17  14.358  13.005  11.525  0.0972 -0.8331 -0.6792
    3ALA      H   18  14.347  12.907  11.503 -1.9603 -1.0568  1.0324
    3ALA     CA   19  14.302  13.053  11.652  0.0637  0.6918 -0.4332
    3ALA     HA   20  14.374  13.116  11.704  0.1632  0.9930 -0.9261
    3ALA     CB   21  14.175  13.133  11.624  0.0950 -0.1261  0.6926
    3ALA    HB1   22  14.101  13.072  11.573  0.5625 -0.1395 -0.0046
    3ALA    HB2   23  14.136  13.163  11.721  1.7721 -0.5019  1.5355
    3ALA    HB3   24  14.185  13.226  11.568 -2.9315  0.6968  1.3568
    3ALA      C   25  14.267  12.935  11.743  0.4437 -0.3878  0.4248
    3ALA      O   26  14.190  12.849  11.707  0.5371  0.0836  0.0939
    4ALA      N   27  14.303  12.949  11.872 -0.3966 -0.0629  0.1300
    4ALA      H   28  14.342  13.040  11.890  0.8947 -0.2728 -1.4236
    4ALA     CA   29  14.296  12.862  11.986 -0.3416 -0.2877 -0.2916
    4ALA     HA   30  14.396  12.875  12.027  0.7088 -1.7552 -2.2225
    4ALA     CB   31  14.195  12.931  12.083 -0.1557 -0.2137  0.2009
    4ALA    HB1   32  14.099  12.948  12.034 -1.8835 -0.9962  3.0340
    4ALA    HB2   33  14.196  12.881  12.180  2.3792 -0.4958  0.1017
    4ALA    HB3   34  14.236  13.028  12.110 -0.0198 -0.4708  0.9696
    4ALA      C   35  14.281  12.706  11.981  0.1417 -0.0083 -0.1088
    4ALA      O   36  14.267  12.651  12.093  0.2055  0.3828  0.4438
    5NME      N   37  14.281  12.646  11.864 -0.3913 -0.2029  0.3083
    5NME      H   38  14.260  12.703  11.783 -1.0419 -1.2587 -0.2852
    5NME    CH3   39  14.276  12.502  11.847  0.5318  0.1679  0.1919
    5NME   HH31   40  14.190  12.464  11.903  0.6046  0.1387  0.2879
    5NME   HH32   41  14.260  12.472  11.744 -3.4635 -1.0631  0.9806
    5NME   HH33   42  14.366  12.454  11.885  0.4260 -0.7319 -0.6455
  20.91516  20.91516  20.91516
