Protein
   42
    1ACE   HH31    1   9.951  10.649  13.129 -0.1030  0.7692 -0.4329
    1ACE    CH3    2  10.025  10.691  13.060  0.0320  0.2712 -0.6079
    1ACE   HH32    3   9.984  10.769  12.995  0.0546  0.2802 -0.6122
    1ACE   HH33    4  10.066  10.618  12.991  0.1196 -0.3691  0.1010
    1ACE      C    5  10.132  10.754  13.141 -0.4174 -0.1832  0.2624
    1ACE      O    6  10.250  10.732  13.114  0.1865  0.2996 -0.3025
    2ALA      N    7  10.093  10.851  13.228 -0.2800  0.1931  0.0085
    2ALA      H    8   9.994  10.865  13.242 -0.1705  0.4312  0.5832
    2ALA     CA    9  10.183  10.917  13.320  0.3441  0.3191  0.0633
    2ALA     HA   10  10.118  10.961  13.395 -0.5675  0.3321 -0.7084
    2ALA     CB   11  10.261  10.814  13.405 -0.2605 -0.3422 -0.2675
    2ALA    HB1   12  10.313  10.875  13.479  2.0020  0.5119 -2.3975
    2ALA    HB2   13  10.194  10.743  13.454  0.4438  0.2884  1.7056
    2ALA    HB3   14  10.329  10.747  13.353  2.2050  0.9973  1.0347
    2ALA      C   15  10.266  11.039  13.265  1.2433 -0.4677  0.4399
    2ALA      O   16  10.322  11.116  13.339  0.0548  0.4270 -0.3662
    3ALA      N   17  10.267  11.057  13.133 -0.3196  0.3012 -0.3616
    3ALA      H   18  10.217  10.978  13.093 -2.2120  1.7944 -1.1001
    3ALA     CA   19  10.338  11.149  13.033  0.5190  0.0140 -0.3392
    3ALA     HA   20  10.267  11.156  12.950  0.2146 -0.1569 -0.1005
    3ALA     CB   21  10.362  11.287  13.089  0.1888 -0.7429  0.0548
    3ALA    HB1   22  10.418  11.343  13.015 -2.0137 -0.8837 -1.8319
    3ALA    HB2   23  10.268  11.336  13.113  0.3464  0.1872 -1.1638
    3ALA    HB3   24  10.417  11.295  13.182 -2.1724  1.2513  1.4064
    3ALA      C   25  10.459  11.067  12.992  0.2255 -0.5265  0.0168
    3ALA      O   26  10.475  11.040  12.869 -0.3451 -0.1074 -0.0359
    4ALA      N   27  10.548  11.025  13.087  0.7209  0.4069 -0.3236
    4ALA      H   28  10.525  11.066  13.177  0.3437 -2.2256  0.8676
    4ALA     CA   29  10.655  10.918  13.084 -0.6800 -0.4024  1.0289
    4ALA     HA   30  10.750  10.971  13.077 -0.1357 -1.4385  0.3879
    4ALA     CB   31  10.639  10.841  13.215  0.0732 -0.2926  0.6488
    4ALA    HB1   32  10.703  10.752  13.212 -0.7722 -1.0172  2.6071
    4ALA    HB2   33  10.671  10.914  13.289  2.1314  1.6778 -1.9549
    4ALA    HB3   34  10.535  10.812  13.229 -0.0504  0.8256  2.4085
    4ALA      C   35  10.639  10.836  12.954  0.0524 -0.1318  0.3444
    4ALA      O   36  10.727  10.836  12.868  0.0447 -1.0300  0.2549
    5NME      N   37  10.520  10.770  12.939  0.1602 -0.0244  0.0585
    5NME      H   38  10.443  10.775  13.006  0.4562 -1.0746  0.4977
    5NME    CH3   39  10.494  10.686  12.822 -0.0558  0.2192  0.4734
    5NME   HH31   40  10.452  10.737  12.736 -0.2712 -0.6106  0.0829
    5NME   HH32   41  10.585  10.638  12.786  0.6515 -0.0548  2.4923
    5NME   HH33   42  10.423  10.608  12.851  1.2519 -0.6411  1.4794
  20.91516  20.91516  20.91516
