Protein
   42
    1ACE   HH31    1   4.716   6.447  14.141  0.3526  0.2673 -1.4083
    1ACE    CH3    2   4.714   6.341  14.115 -0.3653 -0.1060 -0.0077
    1ACE   HH32    3   4.761   6.332  14.016  1.8775 -2.7469  1.1660
    1ACE   HH33    4   4.614   6.299  14.115 -0.2536 -0.3676  0.6371
    1ACE      C    5   4.803   6.261  14.206  0.1279 -0.7647 -0.6034
    1ACE      O    6   4.793   6.142  14.219  0.6082  0.4582  0.3776
    2ALA      N    7   4.907   6.335  14.253  0.1440 -0.1978 -0.3250
    2ALA      H    8   4.912   6.430  14.219 -2.6609  0.2378  0.2233
    2ALA     CA    9   5.016   6.293  14.342 -0.8851  0.3417  0.0603
    2ALA     HA   10   5.109   6.307  14.287 -1.6218  1.1116 -1.0330
    2ALA     CB   11   5.035   6.387  14.465 -0.5452 -0.0745 -0.1915
    2ALA    HB1   12   5.073   6.486  14.439  0.4295 -0.5269 -0.5238
    2ALA    HB2   13   4.945   6.391  14.526 -0.2769 -0.1162  0.2200
    2ALA    HB3   14   5.116   6.348  14.526 -1.2059 -1.3360 -0.0742
    2ALA      C   15   5.006   6.144  14.387 -0.7992  0.1880  0.4599
    2ALA      O   16   4.922   6.115  14.473 -0.8061 -0.3936 -0.1790
    3ALA      N   17   5.083   6.048  14.338  0.0719 -0.2393  0.7293
    3ALA      H   18   5.077   5.960  14.389  0.7798  0.0047  1.2701
    3ALA     CA   19   5.160   6.047  14.216 -0.3908 -0.2799  0.5343
    3ALA     HA   20   5.251   6.105  14.233 -0.8472  0.7086 -0.2832
    3ALA     CB   21   5.217   5.904  14.195 -0.4197  0.1294  0.1015
    3ALA    HB1   22   5.294   5.903  14.119 -1.7021 -1.2876 -1.2498
    3ALA    HB2   23   5.254   5.861  14.288 -0.8301 -1.1098 -0.2834
    3ALA    HB3   24   5.138   5.838  14.158  1.0700 -0.6469 -1.8104
    3ALA      C   25   5.094   6.104  14.086 -0.0570 -0.2152 -0.8574
    3ALA      O   26   5.148   6.195  14.029 -0.3425  0.1905 -0.0411
    4ALA      N   27   4.981   6.049  14.042  0.7920  0.5897  0.2053
    4ALA      H   28   4.931   5.990  14.106  1.3122 -1.9348 -1.5610
    4ALA     CA   29   4.928   6.071  13.906 -0.4125  0.0125  0.1863
    4ALA     HA   30   4.971   6.159  13.859 -0.3399 -0.8013 -1.3490
    4ALA     CB   31   4.979   5.959  13.817  0.2142  0.4901  0.0258
    4ALA    HB1   32   4.938   5.861  13.841  1.6746 -0.7789 -2.2651
    4ALA    HB2   33   4.951   5.976  13.713  0.6955  1.7523  0.0893
    4ALA    HB3   34   5.087   5.940  13.819  0.0769 -0.2398  1.3793
    4ALA      C   35   4.776   6.085  13.896 -0.2861  0.3875  0.3725
    4ALA      O   36   4.717   6.142  13.801 -0.8660 -0.2547  0.4526
    5NME      N   37   4.707   6.018  13.987  0.4296 -0.0339 -0.3707
    5NME      H   38   4.752   5.994  14.074 -1.0496  0.4441  0.5577
    5NME    CH3   39   4.564   5.984  13.965  0.5189 -0.3653  0.1824
    5NME   HH31   40   4.509   5.965  14.057  1.7605  1.9967  1.5500
    5NME   HH32   41   4.512   6.058  13.905 -1.2899 -1.8004 -0.0690
    5NME   HH33   42   4.564   5.896  13.901 -1.5043  0.9374 -1.7435
  20.91516  20.91516  20.91516
