Protein
   60
    1ACE   HH31    1  19.833  19.851  17.203 -0.7651  0.1315 -0.4230
    1ACE    CH3    2  19.872  19.749  17.205 -0.2620  0.3213 -0.0032
    1ACE   HH32    3  19.827  19.699  17.290  1.3085  0.5354  0.9922
    1ACE   HH33    4  19.860  19.699  17.109 -0.3785  0.4737 -0.0704
    1ACE      C    5  20.021  19.751  17.231 -1.5973 -0.0825 -0.9834
    1ACE      O    6  20.079  19.677  17.158  0.0939  0.2751  0.4986
    2TRP      N    7  20.074  19.825  17.330  0.0761  1.3805 -0.7087
    2TRP      H    8  20.175  19.824  17.339  0.1631 -0.2282 -1.6301
    2TRP     CA    9  19.997  19.903  17.427  0.3829  0.4025 -0.6054
    2TRP     HA   10  19.904  19.947  17.390  1.0910  1.7926 -0.7973
    2TRP     CB   11  19.964  19.816  17.551 -0.2489 -0.5562 -0.6358
    2TRP    HB1   12  20.061  19.787  17.592  0.3426  2.0849  0.1032
    2TRP    HB2   13  19.926  19.719  17.522 -0.2597 -0.7769  0.1091
    2TRP     CG   14  19.867  19.859  17.658 -0.5731 -0.7539  0.0617
    2TRP    CD1   15  19.730  19.880  17.635  0.2142  0.0403  0.1992
    2TRP    HD1   16  19.692  19.865  17.536  0.2919 -0.0321  0.1785
    2TRP    NE1   17  19.670  19.931  17.750 -0.2482 -0.0870  0.0240
    2TRP    HE1   18  19.573  19.948  17.769  0.0663  1.9337  0.0737
    2TRP    CE2   19  19.765  19.945  17.852  0.5089 -0.5084 -0.7104
    2TRP    CZ2   20  19.760  19.987  17.988 -0.3836  0.1194  0.0835
    2TRP    HZ2   21  19.669  20.001  18.044 -0.4518 -1.6562  0.4698
    2TRP    CH2   22  19.882  19.993  18.059  0.2794 -0.3117  1.2353
    2TRP    HH2   23  19.871  20.025  18.161  0.3959 -0.0726  1.1747
    2TRP    CZ3   24  20.007  19.958  18.000  0.2323 -0.7883 -0.3842
    2TRP    HZ3   25  20.101  19.965  18.054 -0.1428  0.9345  0.1195
    2TRP    CE3   26  20.015  19.911  17.866 -0.4420  0.9980 -0.2463
    2TRP    HE3   27  20.107  19.872  17.827 -1.7964 -1.1703 -1.4566
    2TRP    CD2   28  19.892  19.907  17.791  0.2331 -0.2687 -0.5966
    2TRP      C   29  20.085  20.027  17.461  0.1095  0.0269 -0.2517
    2TRP      O   30  20.205  20.018  17.463  0.3778 -0.5704 -0.8130
    3TRP      N   31  20.029  20.136  17.505 -0.0755 -0.3962  0.1034
    3TRP      H   32  20.091  20.207  17.541  1.5930 -0.3765 -2.5783
    3TRP     CA   33  19.887  20.180  17.496 -0.0701  0.8423  0.6285
    3TRP     HA   34  19.817  20.096  17.484 -0.3429  1.2253 -0.6261
    3TRP     CB   35  19.868  20.262  17.368  0.4053 -0.9955  0.9499
    3TRP    HB1   36  19.778  20.323  17.371  1.3211  0.5115 -0.1559
    3TRP    HB2   37  19.954  20.326  17.350 -1.0378  0.4198 -1.4122
    3TRP     CG   38  19.844  20.187  17.238  0.3638 -0.2615 -0.2424
    3TRP    CD1   39  19.926  20.177  17.135  0.1396  1.0110 -0.5036
    3TRP    HD1   40  20.031  20.204  17.128  0.4340  0.5227  1.4125
    3TRP    NE1   41  19.866  20.104  17.034 -0.0114  0.7566  0.2390
    3TRP    HE1   42  19.907  20.093  16.942 -1.3703  3.1235 -0.7683
    3TRP    CE2   43  19.740  20.059  17.071  0.3109  0.3287 -0.2805
    3TRP    CZ2   44  19.638  19.987  17.011  0.4124  0.0599  0.2668
    3TRP    HZ2   45  19.646  19.955  16.908 -1.9112 -0.5582  0.2155
    3TRP    CH2   46  19.536  19.939  17.093 -0.7670  0.2597  0.6483
    3TRP    HH2   47  19.463  19.872  17.049  0.8408 -1.1983  0.1004
    3TRP    CZ3   48  19.515  19.989  17.222  0.0096  0.1498 -0.3419
    3TRP    HZ3   49  19.428  19.953  17.274 -0.5562  0.6863 -0.9053
    3TRP    CE3   50  19.616  20.069  17.284 -0.3213 -0.1451  0.2787
    3TRP    HE3   51  19.604  20.094  17.389 -1.2726  0.6328 -0.0038
    3TRP    CD2   52  19.729  20.104  17.209 -0.6501 -0.7389 -0.0623
    3TRP      C   53  19.832  20.254  17.619 -0.3096  0.4479 -0.3618
    3TRP      O   54  19.741  20.334  17.605 -0.4414  0.3380 -0.2858
    4NME      N   55  19.901  20.232  17.737  0.0337  0.1145 -0.3918
    4NME      H   56  19.973  20.161  17.743 -1.0077 -0.8158  2.1190
    4NME    CH3   57  19.876  20.299  17.864  0.6037  0.4062 -0.1179
    4NME   HH31   58  19.963  20.279  17.927 -0.2948 -0.0725  1.0269
    4NME   HH32   59  19.869  20.407  17.848 -0.3405  0.2693 -0.6579
    4NME   HH33   60  19.785  20.274  17.918 -0.1818  3.5940  0.2625
  41.12396  41.12396  41.12396
