Protein
   32
    1ACE   HH31    1  11.512   8.342  10.293 -3.1830 -1.2331  1.0824
    1ACE    CH3    2  11.552   8.317  10.392 -0.2944 -0.1092  0.2686
    1ACE   HH32    3  11.483   8.237  10.416 -1.4977  0.4597 -1.1004
    1ACE   HH33    4  11.541   8.406  10.454  0.0044  0.0063  0.1610
    1ACE      C    5  11.697   8.275  10.409  0.5878  0.2576 -0.5652
    1ACE      O    6  11.711   8.153  10.443  0.5865 -0.1918  0.5905
    2ALA      N    7  11.798   8.356  10.394  0.2340  0.2817  0.5532
    2ALA      H    8  11.773   8.447  10.356 -1.3778 -0.9237 -1.4810
    2ALA     CA    9  11.925   8.342  10.466 -0.6595  0.2190 -0.0521
    2ALA     HA   10  11.920   8.250  10.524 -3.0380 -1.2989 -2.3882
    2ALA     CB   11  12.037   8.312  10.367  0.2043 -0.1607  0.0147
    2ALA    HB1   12  12.127   8.288  10.423  1.0002  3.0951  0.3431
    2ALA    HB2   13  12.009   8.220  10.315  0.0240 -0.6450  0.9402
    2ALA    HB3   14  12.062   8.385  10.290  1.2092 -1.5448 -1.0373
    2ALA      C   15  11.963   8.461  10.558  0.1764 -0.2430 -0.7671
    2ALA      O   16  11.872   8.526  10.610 -0.6381  0.5516  0.2467
    3ALA      N   17  12.093   8.485  10.586  0.1250 -0.5770  0.2165
    3ALA      H   18  12.163   8.437  10.530 -0.2612  0.0886 -0.8714
    3ALA     CA   19  12.140   8.591  10.674  0.0418 -0.5808  0.3062
    3ALA     HA   20  12.064   8.605  10.751  0.3693 -0.3160  0.5851
    3ALA     CB   21  12.266   8.545  10.752 -0.4297 -0.7193 -0.6045
    3ALA    HB1   22  12.239   8.478  10.834  0.6736 -2.0774 -1.3132
    3ALA    HB2   23  12.340   8.497  10.687 -2.0631 -0.0087 -3.1341
    3ALA    HB3   24  12.317   8.636  10.782 -1.7181  0.1367 -0.9469
    3ALA      C   25  12.155   8.734  10.613 -0.2481 -0.1672  0.2165
    3ALA      O   26  12.240   8.764  10.531 -0.3584  0.3910  0.6461
    4NME      N   27  12.066   8.823  10.658  0.2917 -1.0096 -0.7674
    4NME      H   28  11.981   8.784  10.696 -0.4319  0.1267 -1.1868
    4NME    CH3   29  12.063   8.968  10.641 -0.6631  0.0976  0.1929
    4NME   HH31   30  11.960   9.003  10.647 -1.0550 -0.4962 -2.0822
    4NME   HH32   31  12.120   9.008  10.724 -0.1348  2.3299 -1.1615
    4NME   HH33   32  12.107   8.998  10.545  1.8745 -1.8607  0.6582
  20.99041  20.99041  20.99041
