Protein
   42
    1ACE   HH31    1  10.932   7.574   7.615  0.9655 -2.6433 -0.3330
    1ACE    CH3    2  10.843   7.563   7.554  0.4360 -0.1709 -0.0955
    1ACE   HH32    3  10.860   7.494   7.471 -1.2956  1.6997 -2.1416
    1ACE   HH33    4  10.812   7.661   7.515  2.3627 -0.5388 -2.8681
    1ACE      C    5  10.721   7.521   7.634 -0.5425  0.3424 -0.2548
    1ACE      O    6  10.616   7.484   7.580 -0.2070  0.6111 -0.1910
    2ALA      N    7  10.733   7.515   7.766 -0.1777 -0.2078 -0.1008
    2ALA      H    8  10.814   7.557   7.810 -0.7309  0.0294  0.7109
    2ALA     CA    9  10.624   7.497   7.861 -0.0058 -0.3553 -0.0917
    2ALA     HA   10  10.532   7.519   7.806 -1.1191 -1.1167  1.4053
    2ALA     CB   11  10.606   7.355   7.919  0.3677 -0.1139 -0.2890
    2ALA    HB1   12  10.683   7.333   7.992  0.0236 -0.8265 -0.1366
    2ALA    HB2   13  10.516   7.355   7.981  0.9582 -0.3542  0.5844
    2ALA    HB3   14  10.604   7.273   7.847 -2.0636 -0.0041 -0.4431
    2ALA      C   15  10.636   7.608   7.971  0.6381  0.5224  0.1641
    2ALA      O   16  10.744   7.640   8.009 -0.5002  0.0559 -0.4995
    3ALA      N   17  10.532   7.672   8.023  0.0701  0.4253 -0.0336
    3ALA      H   18  10.557   7.734   8.099 -1.2125 -1.1170  1.7265
    3ALA     CA   19  10.398   7.677   7.969  0.0623  0.4604 -0.7269
    3ALA     HA   20  10.358   7.576   7.964 -2.3294  1.4125 -1.7765
    3ALA     CB   21  10.315   7.755   8.073  0.3473  0.2699  0.2425
    3ALA    HB1   22  10.219   7.783   8.032  0.2557  1.3722  1.1390
    3ALA    HB2   23  10.301   7.707   8.170 -0.9156 -0.0643 -0.0962
    3ALA    HB3   24  10.369   7.844   8.107  1.1498  0.4878 -1.4788
    3ALA      C   25  10.383   7.752   7.834  0.6667 -0.3012 -0.1905
    3ALA      O   26  10.273   7.751   7.774  0.3731 -0.9187  1.0601
    4ALA      N   27  10.482   7.836   7.802 -0.6139 -0.3966 -0.2186
    4ALA      H   28  10.560   7.841   7.867  0.7180  0.2757 -1.7982
    4ALA     CA   29  10.504   7.923   7.683  0.0175  0.7951  0.9815
    4ALA     HA   30  10.420   7.992   7.685 -0.1749  0.6007  0.0097
    4ALA     CB   31  10.637   7.998   7.706  0.1034 -0.5416  0.9815
    4ALA    HB1   32  10.637   8.044   7.805  0.3962  0.5380  0.5031
    4ALA    HB2   33  10.718   7.926   7.697 -0.4843 -1.2886  1.4112
    4ALA    HB3   34  10.648   8.080   7.636  1.3277 -0.4536  1.2597
    4ALA      C   35  10.496   7.860   7.545  0.2945 -0.0405 -0.4476
    4ALA      O   36  10.562   7.904   7.453  0.3826 -0.8693 -0.0558
    5NME      N   37  10.418   7.752   7.531  0.0517  0.0192  0.0351
    5NME      H   38  10.363   7.719   7.610 -0.2448  0.6287  0.0889
    5NME    CH3   39  10.389   7.672   7.414 -0.5460  0.5436 -0.0601
    5NME   HH31   40  10.479   7.620   7.379 -1.3640  1.0701 -3.2792
    5NME   HH32   41  10.315   7.596   7.439 -0.9478  0.2012 -2.1231
    5NME   HH33   42  10.346   7.737   7.338 -1.3632 -0.0057 -0.0854
  20.91516  20.91516  20.91516
