Protein
   32
    1ACE   HH31    1  10.441  11.095  10.847 -0.0447 -1.2137 -1.4325
    1ACE    CH3    2  10.478  11.179  10.787 -0.0645 -0.2406 -0.1424
    1ACE   HH32    3  10.415  11.180  10.698 -1.8202 -1.6450  0.9874
    1ACE   HH33    4  10.577  11.142  10.760 -0.4854 -1.9438  0.4629
    1ACE      C    5  10.474  11.310  10.861  0.0452 -0.2078 -1.0065
    1ACE      O    6  10.538  11.400  10.814  0.2027 -0.0860  0.1898
    2ALA      N    7  10.413  11.319  10.981 -0.0722  0.3065  0.6639
    2ALA      H    8  10.350  11.248  11.014 -1.5941  1.2668 -0.1298
    2ALA     CA    9  10.410  11.441  11.063 -0.4945  0.1255 -0.6979
    2ALA     HA   10  10.467  11.515  11.007 -1.4192 -0.0217 -1.8877
    2ALA     CB   11  10.267  11.493  11.044  0.0150  0.1150  0.2185
    2ALA    HB1   12  10.196  11.421  11.085  1.1134 -1.1499 -0.0244
    2ALA    HB2   13  10.262  11.590  11.093  0.0664  0.7235 -0.9628
    2ALA    HB3   14  10.256  11.505  10.936  0.7148  2.1049  0.3313
    2ALA      C   15  10.445  11.436  11.217 -0.0756 -0.3174  0.0607
    2ALA      O   16  10.433  11.328  11.275  0.2217 -0.0933 -0.3662
    3ALA      N   17  10.480  11.554  11.273  0.0289  0.1613  0.3952
    3ALA      H   18  10.483  11.628  11.204 -0.2771 -1.8003 -1.8604
    3ALA     CA   19  10.533  11.577  11.414 -0.2860  0.0893  0.6474
    3ALA     HA   20  10.622  11.514  11.411 -0.4324 -0.0806 -1.2944
    3ALA     CB   21  10.566  11.731  11.420  0.1121  0.4371 -0.2922
    3ALA    HB1   22  10.615  11.750  11.515 -1.1030 -1.6242  0.8318
    3ALA    HB2   23  10.624  11.750  11.329  0.7794  0.9111  0.2215
    3ALA    HB3   24  10.478  11.793  11.407 -0.9307 -0.9073  0.0644
    3ALA      C   25  10.438  11.533  11.523  0.3842  0.9809  0.6228
    3ALA      O   26  10.479  11.527  11.638  0.4557  0.0548  0.0402
    4NME      N   27  10.307  11.516  11.489 -0.3017 -0.0765 -0.5197
    4NME      H   28  10.295  11.517  11.388  0.1639 -2.9796 -0.6883
    4NME    CH3   29  10.198  11.472  11.580 -0.1771  0.0928 -0.8419
    4NME   HH31   30  10.237  11.419  11.667 -0.1991  2.5696  0.7767
    4NME   HH32   31  10.140  11.557  11.614 -0.3780 -0.5333  0.4522
    4NME   HH33   32  10.136  11.409  11.516 -1.3393 -1.7501  1.8940
  20.99041  20.99041  20.99041
