Protein
   32
    1ACE   HH31    1   9.554  13.485   8.984 -0.0694 -0.4896 -2.0161
    1ACE    CH3    2   9.657  13.520   8.984 -0.0930 -0.2364  0.1667
    1ACE   HH32    3   9.660  13.618   9.030  1.8507  1.0663 -2.4676
    1ACE   HH33    4   9.701  13.533   8.885 -1.3489  2.2185 -0.1369
    1ACE      C    5   9.735  13.416   9.064  0.9904  0.7741  0.0989
    1ACE      O    6   9.807  13.341   9.004  0.5480 -0.0770 -0.6423
    2ALA      N    7   9.707  13.400   9.193  0.0164 -0.2377  0.1256
    2ALA      H    8   9.657  13.480   9.229 -0.1058  0.7920 -2.1569
    2ALA     CA    9   9.767  13.292   9.277  0.1628  0.4857  0.0045
    2ALA     HA   10   9.853  13.245   9.229 -0.4450 -1.7009  0.9354
    2ALA     CB   11   9.822  13.347   9.410 -0.1193  0.2190  0.1476
    2ALA    HB1   12   9.882  13.436   9.391  0.2577  0.1057  0.7712
    2ALA    HB2   13   9.743  13.388   9.473 -0.5675  2.0747 -1.5214
    2ALA    HB3   14   9.887  13.282   9.468  1.2113  1.2275 -0.1568
    2ALA      C   15   9.676  13.173   9.310 -0.0097 -0.8432 -0.3533
    2ALA      O   16   9.554  13.194   9.321 -0.1289 -0.0094  0.0598
    3ALA      N   17   9.727  13.049   9.306 -0.2513 -0.6213 -0.3359
    3ALA      H   18   9.824  13.044   9.279 -0.5282 -3.2844 -1.1882
    3ALA     CA   19   9.688  12.913   9.345 -0.2243  0.9400  0.2787
    3ALA     HA   20   9.651  12.865   9.254  1.4118 -0.1033  0.0998
    3ALA     CB   21   9.823  12.836   9.379 -0.0910 -0.4115 -0.5996
    3ALA    HB1   22   9.865  12.879   9.470  2.5322 -1.8012 -1.0634
    3ALA    HB2   23   9.788  12.734   9.393  0.6348 -0.6636 -0.5793
    3ALA    HB3   24   9.892  12.830   9.294 -0.3772 -2.3132 -0.7201
    3ALA      C   25   9.587  12.887   9.455  0.1865  0.0003  1.2527
    3ALA      O   26   9.612  12.805   9.541  0.0047 -0.6288  0.3867
    4NME      N   27   9.479  12.970   9.454 -0.1100 -0.5008 -0.0076
    4NME      H   28   9.484  13.035   9.378 -2.8459 -0.3893 -0.1983
    4NME    CH3   29   9.375  12.979   9.562  0.7002  0.4213  0.0411
    4NME   HH31   30   9.362  13.085   9.583 -1.4287  0.1084  0.4758
    4NME   HH32   31   9.286  12.927   9.526  1.9316 -1.1475 -0.8498
    4NME   HH33   32   9.409  12.932   9.654 -0.0084 -1.8674 -0.8100
  20.99041  20.99041  20.99041
