Protein
   22
    1ACE   HH31    1   2.090   0.363   6.463  0.9208  0.9267 -0.9165
    1ACE    CH3    2   2.002   0.324   6.412 -0.0019  0.8347  0.7059
    1ACE   HH32    3   1.916   0.387   6.436 -1.8392 -1.1856 -0.1692
    1ACE   HH33    4   1.981   0.233   6.468 -0.6295  1.7593  2.0333
    1ACE      C    5   2.031   0.312   6.263  0.3745 -0.1064 -0.6197
    1ACE      O    6   2.070   0.206   6.219 -0.7664 -0.3589 -0.2373
    2ALA      N    7   2.005   0.411   6.177  0.3341 -0.4274 -0.0472
    2ALA      H    8   1.954   0.496   6.201 -2.4586 -1.6182 -1.2519
    2ALA     CA    9   2.016   0.402   6.028  0.3074 -0.2961  0.4958
    2ALA     HA   10   1.973   0.306   6.000 -1.1745 -0.1319  2.0721
    2ALA     CB   11   1.915   0.506   5.971  0.1925 -0.0295  0.8710
    2ALA    HB1   12   1.916   0.497   5.863  0.1981 -0.8875  0.9344
    2ALA    HB2   13   1.812   0.493   6.003 -0.4434  0.5627 -0.8158
    2ALA    HB3   14   1.953   0.605   6.000 -1.3541  1.1500 -0.9096
    2ALA      C   15   2.160   0.416   5.989 -0.1313 -0.4601  0.7800
    2ALA      O   16   2.202   0.366   5.885 -0.3013  0.0106 -0.0824
    3NME      N   17   2.245   0.494   6.064  0.3055  0.0318  0.0701
    3NME      H   18   2.220   0.530   6.155 -0.3831 -0.4182  0.0629
    3NME    CH3   19   2.373   0.539   6.015 -0.4274 -0.1794 -0.4473
    3NME   HH31   20   2.433   0.451   5.990 -1.7959 -1.0724 -0.7080
    3NME   HH32   21   2.360   0.605   5.929 -0.3131  0.6891  0.1833
    3NME   HH33   22   2.417   0.592   6.100 -1.2887 -0.8981  0.4729
  10.72160  10.72160  10.72160
