Protein
   42
    1ACE   HH31    1   3.880  12.691  12.334  2.2239 -1.4458 -0.6593
    1ACE    CH3    2   3.939  12.717  12.422  0.2880  0.7601  0.0925
    1ACE   HH32    3   4.043  12.726  12.391  0.9852 -2.8867  0.8266
    1ACE   HH33    4   3.924  12.636  12.495  0.2237  1.3272  0.7145
    1ACE      C    5   3.879  12.843  12.481 -0.4857  0.3203 -0.1197
    1ACE      O    6   3.812  12.832  12.584 -0.4823  0.8342  0.3442
    2ALA      N    7   3.901  12.957  12.418  0.0643  0.6387  0.4779
    2ALA      H    8   3.937  12.965  12.324 -1.9141  2.4202 -0.2176
    2ALA     CA    9   3.847  13.082  12.471 -0.0485 -0.3506 -0.8396
    2ALA     HA   10   3.787  13.053  12.557 -0.4428 -0.3513 -1.1080
    2ALA     CB   11   3.967  13.161  12.528 -0.1816  0.1162 -0.2216
    2ALA    HB1   12   4.024  13.093  12.591  0.5741  2.9832  2.4067
    2ALA    HB2   13   4.029  13.196  12.446 -3.5073  2.3436 -2.0372
    2ALA    HB3   14   3.943  13.247  12.590  1.2850  1.5015 -1.4982
    2ALA      C   15   3.764  13.167  12.378 -0.3474 -0.0301  0.0953
    2ALA      O   16   3.771  13.153  12.254  0.0244  0.0049  0.0280
    3ALA      N   17   3.678  13.255  12.432 -0.2022 -0.0269  0.0549
    3ALA      H   18   3.605  13.285  12.368  1.5724  2.2406 -1.0375
    3ALA     CA   19   3.643  13.277  12.577  0.2986 -0.5304  0.5146
    3ALA     HA   20   3.707  13.218  12.642 -0.6135 -0.8108  1.1666
    3ALA     CB   21   3.680  13.420  12.606  0.0106  0.8731 -0.1321
    3ALA    HB1   22   3.768  13.457  12.555  0.0309 -1.0470 -1.5420
    3ALA    HB2   23   3.599  13.486  12.574 -0.1478  1.4332  1.3164
    3ALA    HB3   24   3.689  13.444  12.712 -0.3765 -0.1466  0.1383
    3ALA      C   25   3.497  13.231  12.622  0.0137  0.0378  0.3432
    3ALA      O   26   3.407  13.222  12.544 -0.2911 -0.0572 -0.0123
    4ALA      N   27   3.489  13.197  12.754 -0.6696  0.5432  0.4276
    4ALA      H   28   3.570  13.214  12.813 -1.0070  0.2465  0.9761
    4ALA     CA   29   3.364  13.152  12.814 -0.3057 -0.2812 -0.1835
    4ALA     HA   30   3.292  13.128  12.735 -1.2787  1.1325  0.2337
    4ALA     CB   31   3.402  13.024  12.895 -0.4762  0.1048  0.2566
    4ALA    HB1   32   3.482  13.052  12.964 -0.6208  3.6233 -0.8000
    4ALA    HB2   33   3.312  12.984  12.942 -1.5562  1.9039 -0.1711
    4ALA    HB3   34   3.432  12.950  12.820 -2.2004 -2.0142  1.5112
    4ALA      C   35   3.296  13.262  12.893 -0.1507 -0.3258  0.8901
    4ALA      O   36   3.351  13.371  12.909  0.1819 -0.5365  0.6225
    5NME      N   37   3.187  13.223  12.958  0.3325 -0.4674  0.5840
    5NME      H   38   3.153  13.129  12.945  0.2244 -0.5754  1.5100
    5NME    CH3   39   3.116  13.311  13.047  0.2907 -0.4141 -0.3209
    5NME   HH31   40   3.173  13.400  13.074 -1.1147  1.1449 -2.2243
    5NME   HH32   41   3.020  13.355  13.018  0.8056  2.1441  1.4548
    5NME   HH33   42   3.099  13.261  13.143 -1.8490  0.5662 -0.1298
  20.91516  20.91516  20.91516
