Protein
   42
    1ACE   HH31    1  15.068   1.039   9.455 -1.0317  0.5681  2.9598
    1ACE    CH3    2  15.167   1.082   9.472 -0.2979  0.0498  0.4212
    1ACE   HH32    3  15.199   1.037   9.567 -1.0206 -2.1846 -0.3289
    1ACE   HH33    4  15.169   1.190   9.482  2.5582  0.0303  1.0554
    1ACE      C    5  15.263   1.038   9.360 -0.4467  0.6923  0.3565
    1ACE      O    6  15.344   0.947   9.369  0.4650  0.1987  0.9018
    2ALA      N    7  15.247   1.119   9.257 -0.0437  0.4718  0.5603
    2ALA      H    8  15.193   1.204   9.269 -1.1411  0.3643 -2.6941
    2ALA     CA    9  15.312   1.113   9.134 -0.7734 -0.3920  0.2008
    2ALA     HA   10  15.415   1.144   9.148 -1.2810  1.6623 -0.2056
    2ALA     CB   11  15.324   0.969   9.076  0.1866  1.3350  0.3611
    2ALA    HB1   12  15.359   0.967   8.973  3.6100 -2.2947  1.3494
    2ALA    HB2   13  15.391   0.909   9.139 -0.9831  0.8714  1.1958
    2ALA    HB3   14  15.229   0.920   9.096  0.4815  1.2030  1.5425
    2ALA      C   15  15.240   1.197   9.023 -0.8393 -0.4467  1.3874
    2ALA      O   16  15.125   1.221   9.028 -0.1857  0.2971 -0.3903
    3ALA      N   17  15.304   1.236   8.911  0.4726 -0.3867 -0.3033
    3ALA      H   18  15.234   1.267   8.844 -0.8814 -2.9071 -0.1574
    3ALA     CA   19  15.444   1.259   8.889 -0.0668 -0.2575 -0.1248
    3ALA     HA   20  15.498   1.164   8.892  0.9667  0.2674  2.9537
    3ALA     CB   21  15.454   1.324   8.756 -0.5072 -0.2180 -0.5295
    3ALA    HB1   22  15.414   1.425   8.755  1.7821  0.7430  0.2089
    3ALA    HB2   23  15.557   1.339   8.725 -1.3092  0.4928 -3.1092
    3ALA    HB3   24  15.400   1.263   8.683 -0.3815 -2.8782  1.4456
    3ALA      C   25  15.520   1.349   8.998 -0.2783 -0.6027  0.1109
    3ALA      O   26  15.632   1.312   9.029  0.0501 -0.1113 -0.1088
    4ALA      N   27  15.459   1.450   9.058  0.0054 -0.1969 -0.1253
    4ALA      H   28  15.379   1.487   9.007  1.1866  1.2550 -0.9965
    4ALA     CA   29  15.527   1.520   9.166 -0.4003 -0.5612 -0.2206
    4ALA     HA   30  15.635   1.517   9.148 -0.3058 -0.3030  0.2792
    4ALA     CB   31  15.478   1.668   9.152  0.5411 -0.1831  0.6125
    4ALA    HB1   32  15.498   1.726   9.242  0.1043 -0.6397  1.0065
    4ALA    HB2   33  15.532   1.714   9.069 -0.9834 -1.2083 -1.0248
    4ALA    HB3   34  15.371   1.680   9.139  0.7021  0.4412 -0.2783
    4ALA      C   35  15.485   1.446   9.293 -1.0754 -0.7556 -1.0689
    4ALA      O   36  15.372   1.419   9.319  0.3579  0.0227  0.3114
    5NME      N   37  15.591   1.422   9.377 -0.2918  0.0593 -0.1078
    5NME      H   38  15.687   1.424   9.345 -0.5154 -0.1122 -0.7950
    5NME    CH3   39  15.556   1.377   9.509  0.2324  0.2780 -0.2508
    5NME   HH31   40  15.513   1.277   9.515  1.8384 -0.7644 -3.3932
    5NME   HH32   41  15.644   1.367   9.573 -0.6364 -2.4921  0.6192
    5NME   HH33   42  15.493   1.449   9.561  1.6478 -0.2665  2.3773
  20.91516  20.91516  20.91516
