Protein
   42
    1ACE   HH31    1  12.384  11.300   8.030 -0.1460 -0.4161  0.0208
    1ACE    CH3    2  12.281  11.268   8.041 -0.4365  0.1999 -0.8241
    1ACE   HH32    3  12.245  11.332   8.121 -1.0716 -1.3395  0.1574
    1ACE   HH33    4  12.279  11.169   8.085 -0.5801  0.3549 -0.4643
    1ACE      C    5  12.198  11.290   7.915 -0.0178 -0.2345 -0.0674
    1ACE      O    6  12.164  11.404   7.889  0.4026 -0.7565  0.1358
    2ALA      N    7  12.175  11.189   7.835 -0.1215  0.0530  0.3312
    2ALA      H    8  12.217  11.098   7.853  1.6823  0.7962  0.1773
    2ALA     CA    9  12.073  11.196   7.732 -0.8475  0.1755  0.3385
    2ALA     HA   10  12.105  11.272   7.661  0.4974 -0.6543  0.0106
    2ALA     CB   11  12.067  11.060   7.650 -0.4279 -0.1274  0.3729
    2ALA    HB1   12  12.159  11.052   7.592 -2.3445 -0.2139 -2.9312
    2ALA    HB2   13  12.057  10.983   7.726 -1.1891 -0.2139  0.1935
    2ALA    HB3   14  11.989  11.058   7.575  0.3441  1.0850 -0.5001
    2ALA      C   15  11.942  11.247   7.790 -0.7039  0.6675 -0.0958
    2ALA      O   16  11.866  11.179   7.862  0.3911  0.6273 -0.2620
    3ALA      N   17  11.912  11.366   7.743  0.0713 -0.2235 -0.7022
    3ALA      H   18  11.983  11.410   7.686  0.5483  0.7230  0.5849
    3ALA     CA   19  11.786  11.437   7.759  0.0828  0.2289  0.7882
    3ALA     HA   20  11.788  11.506   7.675 -0.7423 -1.3528 -0.5886
    3ALA     CB   21  11.662  11.356   7.741 -0.1716 -0.2265  0.2866
    3ALA    HB1   22  11.649  11.291   7.827 -2.5046  0.1763  0.3261
    3ALA    HB2   23  11.580  11.428   7.734  0.0885  0.3709  2.7278
    3ALA    HB3   24  11.652  11.302   7.646 -0.6655  0.1577  0.1151
    3ALA      C   25  11.789  11.539   7.876  0.4191 -0.1840  0.0747
    3ALA      O   26  11.697  11.619   7.886  0.0422  0.2004 -0.1583
    4ALA      N   27  11.891  11.545   7.959 -0.1742  0.0071  0.1646
    4ALA      H   28  11.963  11.476   7.940 -1.8677 -1.4532 -1.3196
    4ALA     CA   29  11.901  11.624   8.080 -0.6633  0.1057 -0.1011
    4ALA     HA   30  11.800  11.644   8.118 -0.8131 -0.2039 -0.3313
    4ALA     CB   31  11.975  11.531   8.185  0.0310 -0.0709 -0.2102
    4ALA    HB1   32  12.083  11.539   8.171 -0.1664  1.6791 -1.0120
    4ALA    HB2   33  11.962  11.566   8.288  2.2207 -1.3713  0.5742
    4ALA    HB3   34  11.932  11.431   8.175 -0.5802 -0.0467  1.8169
    4ALA      C   35  11.962  11.762   8.044  0.4150 -0.3331 -0.2695
    4ALA      O   36  12.069  11.803   8.089  0.3192 -0.1699  0.3173
    5NME      N   37  11.904  11.837   7.952  0.2419 -0.4121 -0.0579
    5NME      H   38  11.811  11.807   7.924 -1.3599  1.8372  2.4054
    5NME    CH3   39  11.956  11.965   7.903 -0.3712  0.4508  0.9701
    5NME   HH31   40  11.890  12.047   7.932 -0.6382  1.0880 -1.2427
    5NME   HH32   41  12.060  11.982   7.932  0.8961  0.8530 -3.1809
    5NME   HH33   42  11.960  11.963   7.794 -0.7206 -0.3803  0.9651
  20.91516  20.91516  20.91516
