Protein
   32
    1ACE   HH31    1  11.583   9.036  12.958 -2.1336 -1.0684 -1.0712
    1ACE    CH3    2  11.655   8.988  12.891  0.2712  0.0043  0.6129
    1ACE   HH32    3  11.608   8.974  12.794  2.2782  1.0289 -0.5928
    1ACE   HH33    4  11.682   8.891  12.932  2.4186  1.2081  2.3175
    1ACE      C    5  11.779   9.072  12.872  0.2606  0.3660 -0.2034
    1ACE      O    6  11.865   9.075  12.959 -0.6727 -0.5267 -0.1614
    2ALA      N    7  11.787   9.147  12.769 -0.3520 -0.0288  0.1757
    2ALA      H    8  11.708   9.151  12.705  0.7733  2.4597 -1.2097
    2ALA     CA    9  11.893   9.242  12.746 -0.8068  0.4899  0.0097
    2ALA     HA   10  11.980   9.200  12.796 -0.3802  2.5457  1.0837
    2ALA     CB   11  11.924   9.261  12.600 -0.0337  0.2703  0.9555
    2ALA    HB1   12  11.933   9.160  12.560  0.3802  0.4768  0.5172
    2ALA    HB2   13  11.844   9.317  12.550  0.9259  3.7607  2.9958
    2ALA    HB3   14  12.015   9.318  12.582  2.0029 -3.0689 -0.3033
    2ALA      C   15  11.857   9.381  12.811 -0.0072  0.3251  0.3116
    2ALA      O   16  11.739   9.416  12.822  0.4077 -0.2081 -0.3666
    3ALA      N   17  11.958   9.455  12.854 -0.0142 -0.1612  0.2681
    3ALA      H   18  12.053   9.420  12.845 -0.2172 -2.1789  3.7245
    3ALA     CA   19  11.954   9.591  12.915 -0.8848 -0.3892  0.6239
    3ALA     HA   20  11.860   9.646  12.910 -1.1695 -0.9553 -0.5968
    3ALA     CB   21  11.985   9.552  13.062  0.6564  0.2649 -0.3353
    3ALA    HB1   22  11.975   9.646  13.117 -0.7039 -0.0494 -0.0117
    3ALA    HB2   23  11.908   9.482  13.094  1.3156 -0.1764  0.3412
    3ALA    HB3   24  12.088   9.518  13.073  0.2184 -0.5332  1.5641
    3ALA      C   25  12.048   9.696  12.846  1.0667  0.3415 -0.1260
    3ALA      O   26  12.072   9.800  12.909 -0.1339  0.6876  0.2542
    4NME      N   27  12.102   9.669  12.724 -0.1860 -0.1897  0.3935
    4NME      H   28  12.070   9.586  12.675  1.0309 -0.3970 -0.0930
    4NME    CH3   29  12.176   9.769  12.642  0.4637 -0.4351 -0.8705
    4NME   HH31   30  12.218   9.846  12.707  1.1214 -0.2199 -1.5407
    4NME   HH32   31  12.262   9.731  12.587  0.1906 -1.5286 -0.5663
    4NME   HH33   32  12.102   9.805  12.571  0.3858  0.1437 -0.5126
  20.99041  20.99041  20.99041
