Protein
   42
    1ACE   HH31    1  12.518   5.303   7.100  0.8359  0.8134 -0.2580
    1ACE    CH3    2  12.561   5.365   7.179  0.3200  0.5222  0.2573
    1ACE   HH32    3  12.567   5.469   7.145  1.7172  0.1819 -0.6125
    1ACE   HH33    4  12.661   5.335   7.210 -0.3503 -2.2581 -0.0287
    1ACE      C    5  12.477   5.360   7.304 -0.0698  0.5817  0.6583
    1ACE      O    6  12.499   5.280   7.392 -0.0960 -0.0964  0.3192
    2ALA      N    7  12.374   5.443   7.313  0.5929  0.2122  0.8576
    2ALA      H    8  12.379   5.520   7.248  1.0373 -0.1394  0.4633
    2ALA     CA    9  12.254   5.444   7.406  0.0938  1.1687  1.0198
    2ALA     HA   10  12.182   5.510   7.359 -1.2715 -0.7331  0.3576
    2ALA     CB   11  12.187   5.303   7.420 -0.4963  0.1956  0.2064
    2ALA    HB1   12  12.147   5.263   7.327 -0.8558 -0.3225  0.5769
    2ALA    HB2   13  12.261   5.241   7.470 -2.6743 -2.4519  0.3372
    2ALA    HB3   14  12.092   5.300   7.474 -0.9004 -0.9843 -0.5407
    2ALA      C   15  12.298   5.499   7.536 -0.1901 -0.3407 -0.7363
    2ALA      O   16  12.216   5.577   7.591  0.0286 -0.9537 -0.6868
    3ALA      N   17  12.407   5.454   7.593 -0.3263  0.3048 -0.3533
    3ALA      H   18  12.465   5.390   7.541  2.3549  1.9419  0.3991
    3ALA     CA   19  12.470   5.512   7.712  0.0704  0.2886 -0.4085
    3ALA     HA   20  12.575   5.485   7.699 -0.2791 -0.4521 -1.8934
    3ALA     CB   21  12.471   5.670   7.715 -1.3941  0.0477  0.2119
    3ALA    HB1   22  12.557   5.704   7.773 -1.1356 -0.7256  0.2900
    3ALA    HB2   23  12.490   5.712   7.616 -0.1535 -1.9574 -0.4518
    3ALA    HB3   24  12.384   5.712   7.765 -2.1074 -1.2533  0.1045
    3ALA      C   25  12.418   5.446   7.842 -0.1255 -0.0522 -0.0140
    3ALA      O   26  12.489   5.434   7.947  0.4504  0.2395  0.5215
    4ALA      N   27  12.296   5.398   7.834  0.5887 -0.2937  0.4969
    4ALA      H   28  12.241   5.424   7.753 -0.1301 -1.9493  0.4125
    4ALA     CA   29  12.216   5.329   7.932 -0.3643  0.0783 -0.2278
    4ALA     HA   30  12.112   5.334   7.902 -0.9893 -2.4182  1.1867
    4ALA     CB   31  12.237   5.178   7.932  0.5832 -0.6540 -0.6712
    4ALA    HB1   32  12.328   5.141   7.981  1.3996 -0.7852 -2.2384
    4ALA    HB2   33  12.151   5.129   7.978  0.2949 -1.1255 -1.6881
    4ALA    HB3   34  12.234   5.145   7.828 -0.4637 -0.6962 -0.6283
    4ALA      C   35  12.202   5.394   8.072 -0.2928 -0.1092 -0.1953
    4ALA      O   36  12.083   5.415   8.112 -0.2295 -0.0731  0.0901
    5NME      N   37  12.307   5.430   8.152  0.0091 -0.3414  0.7019
    5NME      H   38  12.397   5.421   8.106 -0.8928 -0.6990 -1.1073
    5NME    CH3   39  12.291   5.522   8.260 -0.9086 -0.0005  0.1062
    5NME   HH31   40  12.273   5.461   8.349  0.8468 -1.4971 -0.5084
    5NME   HH32   41  12.385   5.577   8.258 -1.2274  0.5243 -1.3047
    5NME   HH33   42  12.201   5.583   8.255 -0.3869  0.8007  0.1728
  20.91516  20.91516  20.91516
