Protein
   32
    1ACE   HH31    1  11.241  16.030  14.470  0.2985  0.0966 -0.3697
    1ACE    CH3    2  11.138  16.002  14.447  0.2491 -0.7368  0.7736
    1ACE   HH32    3  11.144  15.898  14.417  0.2777 -0.9773  1.6055
    1ACE   HH33    4  11.098  16.062  14.364 -0.6108 -1.5533  0.5825
    1ACE      C    5  11.049  16.013  14.564 -0.2716  0.5501 -0.2215
    1ACE      O    6  10.928  16.043  14.549  0.0474 -0.5371 -0.0123
    2ALA      N    7  11.100  15.980  14.682  0.4201  0.8961  0.2151
    2ALA      H    8  11.185  15.926  14.685  0.5794  1.1284 -0.1798
    2ALA     CA    9  11.027  15.990  14.807  0.1214 -0.6965 -0.7937
    2ALA     HA   10  10.944  15.921  14.818  0.4209 -0.8224  0.9728
    2ALA     CB   11  11.121  15.943  14.917  0.0441 -0.7727 -0.4229
    2ALA    HB1   12  11.197  16.018  14.936 -2.2725  1.1215  2.2833
    2ALA    HB2   13  11.065  15.937  15.010  0.7867  0.7238  0.1589
    2ALA    HB3   14  11.167  15.847  14.895 -0.9546 -1.3487 -0.0744
    2ALA      C   15  10.976  16.136  14.839  0.6659 -0.4426  0.1668
    2ALA      O   16  10.922  16.152  14.951  0.1545 -0.5101 -0.2915
    3ALA      N   17  10.990  16.237  14.754  0.0334 -0.8871 -0.2449
    3ALA      H   18  11.037  16.212  14.668 -0.6753  2.3011 -1.6721
    3ALA     CA   19  10.917  16.364  14.763 -0.0479 -0.3370  0.1657
    3ALA     HA   20  10.827  16.351  14.823 -0.9109  1.3638 -0.6725
    3ALA     CB   21  11.014  16.470  14.828  0.2060  0.1808 -0.1095
    3ALA    HB1   22  11.076  16.421  14.903  0.4827  1.0284  0.2252
    3ALA    HB2   23  11.084  16.495  14.749 -1.5053  1.2012 -1.3685
    3ALA    HB3   24  10.972  16.561  14.871 -0.7499  1.0058 -2.6137
    3ALA      C   25  10.868  16.418  14.624  0.1604  0.4361  0.1078
    3ALA      O   26  10.862  16.537  14.588  0.0663 -0.0721  0.0902
    4NME      N   27  10.800  16.331  14.546  0.0466 -0.3118 -0.3082
    4NME      H   28  10.809  16.235  14.575  2.0039 -0.3208 -0.8417
    4NME    CH3   29  10.746  16.345  14.411 -0.6982  0.0691  0.2751
    4NME   HH31   30  10.668  16.271  14.393 -1.8966  1.5407 -0.9202
    4NME   HH32   31  10.704  16.445  14.401  0.5133  0.5349 -0.2882
    4NME   HH33   32  10.819  16.324  14.333 -2.0955 -1.1464 -0.7508
  20.99041  20.99041  20.99041
