Protein
   42
    1ACE   HH31    1   9.555  15.045  10.747  0.7426 -2.5415  2.1519
    1ACE    CH3    2   9.646  15.095  10.780  0.0782  0.3816  0.0567
    1ACE   HH32    3   9.719  15.018  10.756 -1.7229 -1.5796  0.5941
    1ACE   HH33    4   9.630  15.106  10.888  0.1393  0.3657  0.0671
    1ACE      C    5   9.679  15.221  10.702 -0.3755  0.5389 -0.0549
    1ACE      O    6   9.631  15.238  10.594  0.5243 -0.1852 -0.2208
    2ALA      N    7   9.766  15.297  10.764  0.2649 -1.1738 -0.3094
    2ALA      H    8   9.801  15.263  10.852  2.8528  0.6563 -0.5325
    2ALA     CA    9   9.836  15.413  10.716  0.2470 -0.1084 -0.1303
    2ALA     HA   10   9.863  15.398  10.611  2.0621  1.7436  0.0092
    2ALA     CB   11   9.720  15.522  10.723 -0.2724 -1.0884  0.2889
    2ALA    HB1   12   9.763  15.617  10.690  1.1197 -1.9408 -0.4853
    2ALA    HB2   13   9.638  15.500  10.655 -0.6504  1.2177 -0.0798
    2ALA    HB3   14   9.688  15.549  10.824  0.1311 -0.7933  0.3447
    2ALA      C   15   9.949  15.430  10.819 -0.1450 -0.9644 -0.0060
    2ALA      O   16   9.921  15.426  10.936  0.0980  0.3146  0.1891
    3ALA      N   17  10.080  15.440  10.781 -0.1601 -0.5974  0.6724
    3ALA      H   18  10.149  15.438  10.854  0.1065  1.1415  0.5127
    3ALA     CA   19  10.149  15.445  10.647  0.8955  0.7084 -0.8024
    3ALA     HA   20  10.250  15.479  10.668  0.7235  0.3004  0.7628
    3ALA     CB   21  10.157  15.305  10.592  0.0950  0.0013  0.1522
    3ALA    HB1   22  10.218  15.283  10.504  1.9995  1.1832  1.1362
    3ALA    HB2   23  10.209  15.246  10.668 -0.3997  0.7432  1.0770
    3ALA    HB3   24  10.056  15.264  10.585  1.0708 -2.5074 -0.2524
    3ALA      C   25  10.085  15.539  10.547 -0.7400  0.1636 -0.1923
    3ALA      O   26   9.994  15.613  10.568 -0.2875  0.3182  0.1210
    4ALA      N   27  10.142  15.537  10.423 -0.2669 -0.5907 -0.6012
    4ALA      H   28  10.208  15.463  10.405 -2.6060 -2.4535 -1.9617
    4ALA     CA   29  10.096  15.628  10.314  0.1860 -0.0029 -0.2509
    4ALA     HA   30  10.022  15.697  10.355  0.4663  0.5574 -0.6805
    4ALA     CB   31  10.210  15.706  10.254  0.8108  0.3601  0.0685
    4ALA    HB1   32  10.237  15.785  10.325 -1.0386 -0.2707  1.5440
    4ALA    HB2   33  10.291  15.637  10.235 -1.0607 -1.4468 -1.9836
    4ALA    HB3   34  10.185  15.752  10.158 -2.0397  0.4789  0.7793
    4ALA      C   35  10.027  15.545  10.208 -0.2737  0.4133 -0.2812
    4ALA      O   36  10.080  15.439  10.169  0.0230  0.1404  0.7937
    5NME      N   37   9.920  15.602  10.154  0.0961 -0.7906 -0.4617
    5NME      H   38   9.902  15.689  10.202  0.8236 -0.9651  0.1417
    5NME    CH3   39   9.850  15.561  10.032 -0.3204 -0.2522  0.1237
    5NME   HH31   40   9.920  15.516   9.962 -0.0163 -0.3662  0.4933
    5NME   HH32   41   9.776  15.487  10.063  1.5250 -1.3468  2.2515
    5NME   HH33   42   9.804  15.648   9.987  1.5873  1.1763  0.8087
  20.91516  20.91516  20.91516
