Protein
   42
    1ACE   HH31    1   7.781  11.183  10.886  1.5804 -0.8644  1.6908
    1ACE    CH3    2   7.827  11.276  10.921  0.7141  0.0995  0.3876
    1ACE   HH32    3   7.740  11.338  10.942  1.8901  2.0017 -0.1721
    1ACE   HH33    4   7.886  11.318  10.840  1.1340 -0.8999  0.1675
    1ACE      C    5   7.904  11.232  11.038  0.8964  0.1759  0.2261
    1ACE      O    6   7.871  11.131  11.093  0.0486 -0.4277  0.2266
    2ALA      N    7   7.983  11.325  11.095 -0.0099 -0.0073 -0.0008
    2ALA      H    8   7.983  11.419  11.059  0.4845  0.5531  1.4073
    2ALA     CA    9   8.058  11.305  11.224 -0.1852  0.2357  0.2683
    2ALA     HA   10   8.005  11.229  11.282  0.9609 -0.6941  0.1358
    2ALA     CB   11   8.198  11.247  11.197 -0.4285 -0.3515  0.3279
    2ALA    HB1   12   8.255  11.316  11.135  0.1558 -0.7606  0.3894
    2ALA    HB2   13   8.255  11.229  11.288 -0.6117 -0.3857  0.4368
    2ALA    HB3   14   8.194  11.151  11.145  0.9111 -0.4605  0.3773
    2ALA      C   15   8.067  11.434  11.300 -0.3384  0.3740  0.0547
    2ALA      O   16   8.059  11.546  11.239  0.3910 -0.2272  0.2947
    3ALA      N   17   8.066  11.443  11.431  0.0069  0.5748 -0.9129
    3ALA      H   18   8.052  11.535  11.471  1.2123  0.4998 -0.2991
    3ALA     CA   19   8.045  11.329  11.522 -0.5747  0.2010 -0.1748
    3ALA     HA   20   8.103  11.241  11.495 -4.3652 -2.4352 -0.4493
    3ALA     CB   21   8.095  11.373  11.661  0.3328  0.3417 -0.5296
    3ALA    HB1   22   8.199  11.405  11.667  0.5166 -0.3800  0.5860
    3ALA    HB2   23   8.037  11.461  11.688 -0.6042 -0.7706  1.3069
    3ALA    HB3   24   8.070  11.295  11.732 -1.6249 -0.9991 -2.5532
    3ALA      C   25   7.898  11.293  11.533  0.6260  0.4006  0.2003
    3ALA      O   26   7.851  11.187  11.579 -0.3684  0.1329  0.1760
    4ALA      N   27   7.808  11.383  11.488 -0.0171 -0.1322  0.1367
    4ALA      H   28   7.829  11.469  11.439 -0.7300 -0.5055 -0.8999
    4ALA     CA   29   7.672  11.379  11.538  0.2286 -0.2081  0.4675
    4ALA     HA   30   7.672  11.346  11.643  1.1485 -1.3615  0.1242
    4ALA     CB   31   7.610  11.519  11.522 -0.1717 -0.0955 -0.5973
    4ALA    HB1   32   7.513  11.516  11.572  1.3803 -1.6823  2.5173
    4ALA    HB2   33   7.665  11.598  11.573  1.3476 -1.3881 -0.1935
    4ALA    HB3   34   7.594  11.544  11.417 -0.6679 -1.1408 -0.7875
    4ALA      C   35   7.580  11.267  11.470 -0.4807 -0.8507 -0.6223
    4ALA      O   36   7.458  11.276  11.484 -0.0742  0.0838 -0.2290
    5NME      N   37   7.639  11.165  11.409 -0.2179 -0.3790 -0.4284
    5NME      H   38   7.740  11.155  11.404 -0.2939 -1.0596 -0.5439
    5NME    CH3   39   7.566  11.064  11.341 -0.5314 -0.2937  0.3066
    5NME   HH31   40   7.480  11.110  11.293 -0.5300 -0.7877 -0.1861
    5NME   HH32   41   7.626  11.016  11.263 -0.9014  1.0901 -0.8851
    5NME   HH33   42   7.542  10.987  11.414 -0.4789  0.4432  1.1087
  20.91516  20.91516  20.91516
