Protein
   32
    1ACE   HH31    1   9.301  10.740   9.345  2.4744  1.1370 -0.5832
    1ACE    CH3    2   9.309  10.769   9.450 -1.1335  0.3507  0.0323
    1ACE   HH32    3   9.414  10.797   9.462 -1.0795  0.9189 -1.5074
    1ACE   HH33    4   9.296  10.690   9.524  2.8127 -1.0914 -0.5186
    1ACE      C    5   9.220  10.885   9.477  0.0530 -0.2951 -0.0103
    1ACE      O    6   9.118  10.907   9.414  0.0641 -0.2079  0.2327
    2ALA      N    7   9.271  10.958   9.573 -0.0596 -0.3573 -1.2728
    2ALA      H    8   9.364  10.943   9.610 -1.2925 -1.6962  1.6309
    2ALA     CA    9   9.207  11.071   9.634  0.6661  0.1917 -0.2604
    2ALA     HA   10   9.136  11.109   9.561 -0.8493 -0.2948  0.9214
    2ALA     CB   11   9.122  11.038   9.764  0.5080 -0.8698  0.1180
    2ALA    HB1   12   9.055  11.125   9.769 -0.8536 -1.8105 -0.7705
    2ALA    HB2   13   9.068  10.944   9.761  2.4637 -2.1924  2.6302
    2ALA    HB3   14   9.180  11.037   9.856  2.7572  1.5598 -1.1345
    2ALA      C   15   9.311  11.180   9.653  0.0758  0.0630 -0.2283
    2ALA      O   16   9.428  11.152   9.654  0.0936  0.3008 -0.1711
    3ALA      N   17   9.269  11.309   9.673 -0.4823 -0.1202 -0.0256
    3ALA      H   18   9.172  11.336   9.681 -0.0773  1.1080  0.9094
    3ALA     CA   19   9.365  11.416   9.669 -0.3862 -0.4495  0.1275
    3ALA     HA   20   9.447  11.399   9.599 -1.8976 -0.7973 -1.6128
    3ALA     CB   21   9.294  11.540   9.598  0.4958  0.9186 -0.5021
    3ALA    HB1   22   9.280  11.516   9.493  1.3645 -1.7696 -0.0750
    3ALA    HB2   23   9.201  11.571   9.647  0.9537  1.4999  0.0220
    3ALA    HB3   24   9.365  11.622   9.588  0.3888  0.9093 -1.4161
    3ALA      C   25   9.430  11.448   9.803  0.5736 -0.8880  0.7004
    3ALA      O   26   9.388  11.542   9.869  0.0293 -0.0922  0.1492
    4NME      N   27   9.528  11.373   9.855 -0.0968 -0.0144  0.1005
    4NME      H   28   9.555  11.290   9.804 -0.8430  0.0764 -0.4537
    4NME    CH3   29   9.615  11.411   9.974  0.6282 -0.3587 -0.2856
    4NME   HH31   30   9.583  11.346  10.055  0.0618 -2.1143 -1.8559
    4NME   HH32   31   9.716  11.382   9.945  1.3909 -0.6089  2.3183
    4NME   HH33   32   9.601  11.516   9.997  0.5208 -0.2008 -1.0861
  20.99041  20.99041  20.99041
