Protein
   42
    1ACE   HH31    1  10.625  12.629  10.064  0.4122  0.2231 -0.0541
    1ACE    CH3    2  10.560  12.570  10.000  0.9833  0.4289 -0.8355
    1ACE   HH32    3  10.553  12.464  10.025 -1.0433 -0.0305 -3.0138
    1ACE   HH33    4  10.607  12.564   9.902  1.8070 -1.1510 -0.3813
    1ACE      C    5  10.427  12.638   9.981 -0.4884  0.3171 -0.4570
    1ACE      O    6  10.412  12.722   9.890 -0.8212  0.4047 -0.1087
    2ALA      N    7  10.329  12.605  10.066 -0.6326 -0.0480  0.7765
    2ALA      H    8  10.351  12.523  10.122  0.5544 -0.9648 -0.9377
    2ALA     CA    9  10.205  12.682  10.079 -0.4540  0.2963 -0.5246
    2ALA     HA   10  10.140  12.646   9.999 -2.5663  1.6372  0.4797
    2ALA     CB   11  10.152  12.628  10.209  0.3240  0.1246  0.4644
    2ALA    HB1   12  10.213  12.673  10.288  2.4831  1.2029 -1.6892
    2ALA    HB2   13  10.045  12.651  10.213  0.4731  1.0777 -0.5452
    2ALA    HB3   14  10.154  12.520  10.216  0.8117  0.0790 -0.2974
    2ALA      C   15  10.220  12.837  10.071  0.5844  0.4258 -0.0983
    2ALA      O   16  10.299  12.890  10.151  0.5232 -0.3506  0.6329
    3ALA      N   17  10.146  12.913   9.983 -0.8024 -0.2055  0.2227
    3ALA      H   18  10.175  13.010   9.982 -0.9764 -0.1190 -1.5942
    3ALA     CA   19  10.033  12.868   9.899 -0.3432 -0.1403 -0.1374
    3ALA     HA   20   9.974  12.803   9.963  0.8462  1.4459  2.7248
    3ALA     CB   21   9.945  12.997   9.883 -0.0072  0.9004  0.3512
    3ALA    HB1   22   9.849  12.955   9.853  0.6331 -0.9575  0.7162
    3ALA    HB2   23   9.935  13.052   9.976  0.1479 -0.7907  1.4187
    3ALA    HB3   24   9.995  13.056   9.806 -1.0709  1.8253  0.3479
    3ALA      C   25  10.062  12.806   9.765 -0.6626 -0.1403 -0.0973
    3ALA      O   26   9.970  12.763   9.705  0.0120 -0.5514  0.3022
    4ALA      N   27  10.190  12.787   9.724 -0.1081 -0.1866 -0.6993
    4ALA      H   28  10.264  12.815   9.786  1.9882 -1.5523 -2.4365
    4ALA     CA   29  10.235  12.720   9.600  0.1347 -0.6330 -0.1266
    4ALA     HA   30  10.196  12.618   9.612  0.0831 -0.5083  0.8106
    4ALA     CB   31  10.167  12.792   9.469 -0.4584 -0.3023 -0.2285
    4ALA    HB1   32  10.165  12.717   9.389 -0.9992  0.4076 -0.8956
    4ALA    HB2   33  10.060  12.812   9.478 -0.3037  2.3791 -3.0140
    4ALA    HB3   34  10.228  12.876   9.436 -1.6086  0.6187 -0.0865
    4ALA      C   35  10.385  12.714   9.560  0.4948  0.8120  0.4701
    4ALA      O   36  10.421  12.658   9.461 -0.4195  0.8313  0.2785
    5NME      N   37  10.473  12.794   9.632  0.1395  0.1069 -0.1639
    5NME      H   38  10.444  12.840   9.717  0.6559  0.6901 -0.2954
    5NME    CH3   39  10.615  12.821   9.610  0.3045 -0.9391 -0.5370
    5NME   HH31   40  10.646  12.910   9.665 -0.3613  0.9153 -3.0034
    5NME   HH32   41  10.667  12.735   9.653  0.2006  0.3909  2.5186
    5NME   HH33   42  10.638  12.830   9.504 -1.2741 -1.7559 -0.9886
  20.91516  20.91516  20.91516
