Protein
   32
    1ACE   HH31    1  11.111  11.365  16.086  0.2400  0.0422  0.5809
    1ACE    CH3    2  11.063  11.432  16.158 -0.0026  0.6354 -0.0997
    1ACE   HH32    3  10.963  11.391  16.171  0.4179 -0.1824  0.7785
    1ACE   HH33    4  11.055  11.531  16.115  1.8371  0.5084 -0.8197
    1ACE      C    5  11.137  11.436  16.289 -0.1975  0.0938 -0.0978
    1ACE      O    6  11.257  11.433  16.297 -0.6936  0.1974  0.3496
    2ALA      N    7  11.060  11.460  16.396  0.5037 -0.6059  0.1550
    2ALA      H    8  10.960  11.467  16.388  0.4421  0.5507  1.5274
    2ALA     CA    9  11.112  11.452  16.535  0.1644  0.0724 -0.6377
    2ALA     HA   10  11.184  11.533  16.542 -0.4167  0.5999 -0.6968
    2ALA     CB   11  10.996  11.476  16.637 -0.7488  0.5151  0.4641
    2ALA    HB1   12  10.948  11.572  16.621 -0.0758  1.2283  2.4102
    2ALA    HB2   13  10.935  11.386  16.636  0.0235 -0.0765  2.1913
    2ALA    HB3   14  11.031  11.488  16.740 -0.7852 -1.0745  0.6894
    2ALA      C   15  11.191  11.327  16.560  0.2353  0.6272 -0.0352
    2ALA      O   16  11.148  11.213  16.550 -0.3714  0.0694  0.1091
    3ALA      N   17  11.319  11.352  16.584 -0.4433  0.2272  0.0147
    3ALA      H   18  11.352  11.444  16.607  0.9985 -0.7089  1.9733
    3ALA     CA   19  11.429  11.251  16.587  0.1804 -0.2480 -0.3058
    3ALA     HA   20  11.523  11.303  16.564 -0.3062  0.0483 -1.7787
    3ALA     CB   21  11.445  11.195  16.728 -0.7739  0.4923 -0.0362
    3ALA    HB1   22  11.461  11.276  16.799  0.5409  0.6152 -0.4478
    3ALA    HB2   23  11.354  11.139  16.749 -0.9217  1.0510  0.8500
    3ALA    HB3   24  11.529  11.125  16.727 -1.3123 -0.2128  1.0003
    3ALA      C   25  11.439  11.147  16.472 -0.2952  0.6701 -0.3457
    3ALA      O   26  11.524  11.053  16.479  0.4405 -0.2758 -0.0114
    4NME      N   27  11.358  11.163  16.364 -0.2473  0.2756 -0.0180
    4NME      H   28  11.305  11.248  16.372  1.2926  1.1857  1.1872
    4NME    CH3   29  11.357  11.084  16.240 -0.3442  0.3649 -0.3828
    4NME   HH31   30  11.429  11.001  16.242  1.0370  1.4733 -1.5058
    4NME   HH32   31  11.258  11.044  16.217  0.1101 -0.1792 -1.4882
    4NME   HH33   32  11.395  11.144  16.158  1.4983 -0.7031 -0.3709
  20.99041  20.99041  20.99041
