Protein
   42
    1ACE   HH31    1  11.560  10.180  15.141 -0.0010 -0.5667 -1.0064
    1ACE    CH3    2  11.595  10.278  15.106  0.3212 -0.4520 -0.3839
    1ACE   HH32    3  11.509  10.316  15.050  0.7014 -2.0581 -2.1654
    1ACE   HH33    4  11.681  10.279  15.040  0.3467  1.9680 -0.3778
    1ACE      C    5  11.615  10.369  15.231  0.1644  0.5083  0.1013
    1ACE      O    6  11.524  10.413  15.303 -0.1923 -0.1016 -0.0785
    2ALA      N    7  11.745  10.391  15.252 -0.3563  0.3074  0.1523
    2ALA      H    8  11.817  10.353  15.191  0.5305 -0.6602  1.7284
    2ALA     CA    9  11.795  10.481  15.355 -0.2849 -0.5303  0.0575
    2ALA     HA   10  11.735  10.460  15.443  0.3211  1.4381  1.0026
    2ALA     CB   11  11.944  10.451  15.393 -0.5280  0.4374 -0.2479
    2ALA    HB1   12  11.978  10.527  15.463 -0.9413 -0.5845  1.1051
    2ALA    HB2   13  11.959  10.356  15.444  0.8076  1.6496  1.7466
    2ALA    HB3   14  12.016  10.459  15.312 -0.3738  1.9776  0.0089
    2ALA      C   15  11.785  10.626  15.313 -0.0395 -0.2841  0.6481
    2ALA      O   16  11.845  10.675  15.216  0.4163  0.1148 -0.0337
    3ALA      N   17  11.698  10.709  15.361  0.2269 -0.0323 -0.8459
    3ALA      H   18  11.696  10.796  15.310  0.9213  1.4133  1.4327
    3ALA     CA   19  11.604  10.681  15.479  0.1432  0.1120 -0.1424
    3ALA     HA   20  11.567  10.579  15.476 -0.6528  0.3848 -2.7010
    3ALA     CB   21  11.699  10.700  15.601 -0.0143  0.3638 -0.1936
    3ALA    HB1   22  11.763  10.613  15.617 -0.0081  0.4354  0.1523
    3ALA    HB2   23  11.755  10.793  15.599 -0.6780  0.7966 -2.7962
    3ALA    HB3   24  11.645  10.693  15.695 -0.5491 -1.1964 -0.5811
    3ALA      C   25  11.486  10.779  15.483  0.3374 -0.0793 -0.6021
    3ALA      O   26  11.493  10.903  15.457 -0.0084 -0.1509  0.3957
    4ALA      N   27  11.371  10.720  15.521  0.4332 -0.6608  0.3290
    4ALA      H   28  11.379  10.626  15.556 -0.8799 -0.7644  0.4315
    4ALA     CA   29  11.243  10.787  15.547  0.5303 -0.4603  0.1307
    4ALA     HA   30  11.255  10.895  15.562  1.8011 -0.8390  2.2146
    4ALA     CB   31  11.153  10.772  15.420  0.0048  0.0174 -0.1755
    4ALA    HB1   32  11.218  10.786  15.334  0.1116  0.2360 -0.0625
    4ALA    HB2   33  11.116  10.670  15.421  0.8495 -0.3575  2.6194
    4ALA    HB3   34  11.063  10.832  15.433 -1.3289 -2.1213  1.0101
    4ALA      C   35  11.182  10.731  15.676  0.3003 -0.0764  0.5897
    4ALA      O   36  11.223  10.623  15.720  0.5152  0.6361 -0.2077
    5NME      N   37  11.095  10.812  15.737  0.1057  0.4191 -0.6666
    5NME      H   38  11.058  10.889  15.683  0.0539  0.6041 -0.3748
    5NME    CH3   39  11.030  10.790  15.867 -0.2949  0.1067 -0.0437
    5NME   HH31   40  11.114  10.777  15.936 -0.3189  1.3888  0.2610
    5NME   HH32   41  10.967  10.873  15.898  0.0479  1.3182 -2.3921
    5NME   HH33   42  10.985  10.691  15.862  3.3710 -1.7816  0.2135
  20.91516  20.91516  20.91516
