Protein
   42
    1ACE   HH31    1   7.738  12.491  12.799 -0.6218 -0.0145 -2.3495
    1ACE    CH3    2   7.738  12.385  12.822 -0.0636  0.4153 -0.1458
    1ACE   HH32    3   7.670  12.356  12.902 -0.1751  0.1122 -0.3477
    1ACE   HH33    4   7.841  12.349  12.828 -0.0852  0.6694  2.0146
    1ACE      C    5   7.691  12.316  12.692 -0.0684 -0.4968 -0.4602
    1ACE      O    6   7.594  12.245  12.684  0.2652  0.0112  0.1023
    2ALA      N    7   7.760  12.347  12.578 -0.1809  0.5228  0.0534
    2ALA      H    8   7.842  12.406  12.586 -0.2051  0.4769  0.7397
    2ALA     CA    9   7.722  12.325  12.438  0.7066 -0.0831  0.6805
    2ALA     HA   10   7.710  12.217  12.430  0.2942 -0.1597  2.0918
    2ALA     CB   11   7.584  12.397  12.413  0.3042 -0.2626  0.2346
    2ALA    HB1   12   7.528  12.402  12.506  1.3661 -1.7266  1.0026
    2ALA    HB2   13   7.607  12.502  12.395  2.3768 -0.9131 -1.2754
    2ALA    HB3   14   7.527  12.346  12.335 -3.9982  0.1907  2.8122
    2ALA      C   15   7.839  12.370  12.349 -0.1289  0.6544  0.2778
    2ALA      O   16   7.893  12.477  12.371  0.3894  0.1600  0.8425
    3ALA      N   17   7.885  12.301  12.244  0.6185 -0.2241 -0.3669
    3ALA      H   18   7.958  12.353  12.198  1.4499  1.3193  2.4755
    3ALA     CA   19   7.818  12.199  12.162  0.2679 -0.0448 -0.4498
    3ALA     HA   20   7.723  12.175  12.210  1.2980 -1.2228  1.0837
    3ALA     CB   21   7.791  12.259  12.025  0.4648  0.4296 -0.6944
    3ALA    HB1   22   7.879  12.309  11.985  0.2835  0.6374 -0.8395
    3ALA    HB2   23   7.760  12.184  11.952  0.0721  0.9122 -1.0247
    3ALA    HB3   24   7.720  12.341  12.032  1.8204  1.5689  0.1545
    3ALA      C   25   7.900  12.073  12.141 -0.4074  0.0206  0.1954
    3ALA      O   26   7.860  11.984  12.063 -0.2133  0.8085  0.1128
    4ALA      N   27   8.013  12.062  12.217  0.5434 -0.5943 -0.9904
    4ALA      H   28   8.044  12.136  12.279 -0.8101 -0.3622 -0.5604
    4ALA     CA   29   8.114  11.964  12.183 -0.1350 -0.3706  0.7450
    4ALA     HA   30   8.060  11.869  12.182  1.1149 -1.0908  0.1145
    4ALA     CB   31   8.169  11.991  12.038 -0.1332  0.1500 -0.3588
    4ALA    HB1   32   8.087  11.994  11.966 -0.3768  0.0355 -0.0965
    4ALA    HB2   33   8.229  12.082  12.038  1.4478 -0.8289  1.2390
    4ALA    HB3   34   8.235  11.909  12.008  0.7949  0.5572  0.5194
    4ALA      C   35   8.233  11.967  12.279  0.2926  0.2210 -0.0364
    4ALA      O   36   8.263  12.069  12.343 -0.1288  0.3952  0.3648
    5NME      N   37   8.295  11.847  12.295 -0.0880 -0.2726  0.0580
    5NME      H   38   8.258  11.767  12.245 -0.9097  1.5081 -2.4368
    5NME    CH3   39   8.399  11.827  12.404 -0.2381  0.2376 -0.1042
    5NME   HH31   40   8.465  11.743  12.386  2.3707  1.6552  2.1901
    5NME   HH32   41   8.460  11.917  12.407 -2.6708  2.0576 -0.8675
    5NME   HH33   42   8.354  11.816  12.502 -1.0784  1.8598 -0.2740
  20.91516  20.91516  20.91516
