Protein
   42
    1ACE   HH31    1  10.065   9.103   9.504 -2.1413 -1.8754  0.7105
    1ACE    CH3    2  10.074   9.087   9.611 -0.0000  0.1389  0.9142
    1ACE   HH32    3  10.065   8.984   9.645  1.6057  0.1931  1.5949
    1ACE   HH33    4   9.994   9.153   9.646  0.0240 -0.0974  1.4460
    1ACE      C    5  10.204   9.150   9.659  0.4926 -0.4898  0.1218
    1ACE      O    6  10.243   9.117   9.770  0.1636 -0.2802  0.2226
    2ALA      N    7  10.248   9.251   9.577 -0.0879  0.1882  0.3245
    2ALA      H    8  10.209   9.248   9.484 -0.2983 -1.5196  0.4341
    2ALA     CA    9  10.383   9.309   9.580 -0.1196 -0.2911  0.5308
    2ALA     HA   10  10.409   9.311   9.474 -0.7165  1.0008  0.3871
    2ALA     CB   11  10.361   9.455   9.625 -0.2698  0.2030 -0.5642
    2ALA    HB1   12  10.457   9.503   9.606  2.5954 -4.0372  1.5952
    2ALA    HB2   13  10.280   9.506   9.573 -0.3641 -0.8859 -1.5156
    2ALA    HB3   14  10.340   9.458   9.732 -4.5119 -1.2578 -1.1780
    2ALA      C   15  10.495   9.238   9.657  0.0287  0.3325  0.0816
    2ALA      O   16  10.520   9.284   9.768 -0.5288  0.4537  0.0956
    3ALA      N   17  10.575   9.139   9.608 -0.0024 -0.4648  0.0042
    3ALA      H   18  10.660   9.113   9.655  1.0983  0.4610 -1.4064
    3ALA     CA   19  10.562   9.066   9.481 -0.4478 -0.2848 -0.3236
    3ALA     HA   20  10.555   9.140   9.401  1.3478  0.5491  0.2378
    3ALA     CB   21  10.696   8.992   9.463  0.4900  0.4861  0.0032
    3ALA    HB1   22  10.694   8.929   9.374 -0.9192  0.5631 -0.0276
    3ALA    HB2   23  10.776   9.065   9.456  1.7040 -0.8705 -1.0199
    3ALA    HB3   24  10.717   8.919   9.541  1.7428  0.5437 -0.2594
    3ALA      C   25  10.447   8.968   9.468 -0.0009  0.3689  0.4062
    3ALA      O   26  10.349   8.992   9.392 -0.3937 -0.0488  0.1763
    4ALA      N   27  10.445   8.873   9.553  0.1726  0.2672 -0.2424
    4ALA      H   28  10.517   8.875   9.624 -0.5904 -0.4806  0.5863
    4ALA     CA   29  10.344   8.766   9.575  0.7084  0.3451 -0.0813
    4ALA     HA   30  10.248   8.801   9.539  0.0674 -1.7968 -0.5998
    4ALA     CB   31  10.378   8.655   9.473 -0.3863 -0.1618 -0.3087
    4ALA    HB1   32  10.485   8.635   9.461 -0.1836  0.2425  0.7662
    4ALA    HB2   33  10.326   8.564   9.501 -0.7291 -0.6637 -2.3608
    4ALA    HB3   34  10.340   8.689   9.376 -1.8145  0.0342  0.3082
    4ALA      C   35  10.334   8.721   9.722  0.1112 -0.9820 -0.3769
    4ALA      O   36  10.366   8.606   9.750  0.2874 -0.2234  0.0458
    5NME      N   37  10.285   8.810   9.810  0.0709  0.1676 -0.0690
    5NME      H   38  10.264   8.902   9.774  2.0633  0.0167 -1.7727
    5NME    CH3   39  10.258   8.790   9.949  0.1755  0.1899  0.0054
    5NME   HH31   40  10.258   8.886  10.000  0.6935  1.8004 -2.7721
    5NME   HH32   41  10.167   8.731   9.967  2.0736 -2.6896  0.8017
    5NME   HH33   42  10.342   8.731   9.984  0.9719  0.8431 -0.7501
  20.91516  20.91516  20.91516
