Protein
   42
    1ACE   HH31    1   7.596  12.409  12.915  0.5799  0.7938  0.7753
    1ACE    CH3    2   7.489  12.418  12.933  0.2850 -0.3521 -0.2766
    1ACE   HH32    3   7.427  12.351  12.874 -1.8909  0.1158  1.3467
    1ACE   HH33    4   7.461  12.523  12.925  0.5533 -0.2701 -0.1495
    1ACE      C    5   7.457  12.389  13.080 -1.0802 -0.3856 -0.2648
    1ACE      O    6   7.390  12.467  13.149 -0.0284 -0.1509  0.6657
    2ALA      N    7   7.531  12.294  13.137 -0.0341 -0.4828 -0.2186
    2ALA      H    8   7.595  12.239  13.081 -1.4764 -1.1773 -1.2525
    2ALA     CA    9   7.546  12.277  13.280 -0.0652  0.7164  0.2408
    2ALA     HA   10   7.492  12.358  13.329 -0.1836 -0.0006  1.3723
    2ALA     CB   11   7.480  12.144  13.322  0.5450  0.8205  0.8125
    2ALA    HB1   12   7.489  12.123  13.428 -1.5007 -4.5749  0.2450
    2ALA    HB2   13   7.376  12.134  13.291  1.0693 -1.9633 -0.4559
    2ALA    HB3   14   7.535  12.058  13.282  0.1848  1.2399 -0.6588
    2ALA      C   15   7.700  12.287  13.316 -1.3024 -0.4775 -0.0485
    2ALA      O   16   7.780  12.226  13.251  0.4717  0.4884  0.3956
    3ALA      N   17   7.744  12.360  13.419 -0.1065  0.7069 -0.4586
    3ALA      H   18   7.843  12.364  13.435  0.3141  0.0944 -2.4439
    3ALA     CA   19   7.659  12.441  13.515  0.5850 -0.1520  0.6594
    3ALA     HA   20   7.564  12.394  13.540 -0.2990  1.5139  0.5907
    3ALA     CB   21   7.727  12.451  13.651  0.0104 -0.0252  0.0652
    3ALA    HB1   22   7.777  12.360  13.686 -0.0459 -0.6673 -1.4533
    3ALA    HB2   23   7.812  12.518  13.643  1.0653 -1.4772 -1.6124
    3ALA    HB3   24   7.662  12.494  13.727  1.4062  1.1733  0.6306
    3ALA      C   25   7.613  12.577  13.461  0.0376 -0.4652 -0.4595
    3ALA      O   26   7.559  12.656  13.537 -0.3238  0.0085  0.5322
    4ALA      N   27   7.615  12.597  13.328 -0.3082 -0.5142  0.2788
    4ALA      H   28   7.636  12.523  13.263  0.9820  0.5090 -0.5127
    4ALA     CA   29   7.602  12.730  13.269 -0.8210  0.4422 -0.3868
    4ALA     HA   30   7.496  12.755  13.275 -0.8621  0.2742 -0.3895
    4ALA     CB   31   7.704  12.836  13.334  0.1703  0.3699  0.0744
    4ALA    HB1   32   7.720  12.915  13.261  1.1754  0.4861  0.4075
    4ALA    HB2   33   7.661  12.878  13.425  1.0040  1.8795 -0.1801
    4ALA    HB3   34   7.794  12.778  13.357 -0.5552 -0.9653 -0.2894
    4ALA      C   35   7.645  12.719  13.119  0.5752  0.3845  0.4162
    4ALA      O   36   7.714  12.622  13.081 -0.0859  0.1048 -0.6802
    5NME      N   37   7.600  12.817  13.034 -0.1833  0.2258 -0.2997
    5NME      H   38   7.538  12.888  13.070  0.5609  0.2203  1.0872
    5NME    CH3   39   7.628  12.822  12.885  0.3714 -0.7929  0.0678
    5NME   HH31   40   7.530  12.833  12.838  1.0569  2.3955 -0.8172
    5NME   HH32   41   7.691  12.904  12.852  0.8384 -1.8183 -1.6950
    5NME   HH33   42   7.680  12.732  12.852 -1.3805 -1.2510 -1.6328
  20.91516  20.91516  20.91516
