Protein
   22
    1ACE   HH31    1   4.909   1.070   9.752  0.0112 -1.4444  0.2324
    1ACE    CH3    2   4.845   1.100   9.669  0.3516  0.3965  0.5847
    1ACE   HH32    3   4.880   1.196   9.633  1.1003 -0.3316 -0.6953
    1ACE   HH33    4   4.748   1.127   9.711  0.2391  2.9031 -1.1654
    1ACE      C    5   4.830   0.991   9.558 -0.3199  0.7461 -0.1124
    1ACE      O    6   4.868   1.017   9.446  0.2136 -0.0105  0.1837
    2ALA      N    7   4.768   0.879   9.587  0.2044 -0.1040 -0.2969
    2ALA      H    8   4.737   0.864   9.682  1.3021 -1.1343 -0.0789
    2ALA     CA    9   4.768   0.760   9.504  0.8097 -0.0446  0.4778
    2ALA     HA   10   4.768   0.667   9.561  0.8060 -1.8189 -2.2763
    2ALA     CB   11   4.634   0.748   9.425 -0.3699 -0.0184 -0.0041
    2ALA    HB1   12   4.552   0.704   9.483 -1.3140 -0.4501 -1.6080
    2ALA    HB2   13   4.607   0.845   9.384  1.1282  0.4455  0.0634
    2ALA    HB3   14   4.643   0.684   9.337 -1.7592 -1.2005  0.6752
    2ALA      C   15   4.900   0.746   9.426 -0.1259  0.8056 -0.6546
    2ALA      O   16   4.994   0.689   9.483  0.1376 -0.0937  0.4237
    3NME      N   17   4.900   0.769   9.292  0.2734 -0.1716  0.0873
    3NME      H   18   4.823   0.830   9.271  0.2577 -0.5167 -0.9172
    3NME    CH3   19   5.016   0.760   9.201 -0.3082 -0.3600 -0.2814
    3NME   HH31   20   5.059   0.660   9.204 -1.0652 -0.6759  0.5137
    3NME   HH32   21   4.985   0.782   9.099 -0.7919 -2.0879 -0.5257
    3NME   HH33   22   5.090   0.833   9.234  0.9251 -1.8685  0.3672
  10.72160  10.72160  10.72160
