Protein
   42
    1ACE   HH31    1  11.918   9.224  10.662  1.1681 -1.1753  0.0597
    1ACE    CH3    2  11.985   9.304  10.630  0.3757 -0.2376  0.6736
    1ACE   HH32    3  12.086   9.263  10.617  0.7423  0.4262  1.4078
    1ACE   HH33    4  11.989   9.377  10.710  1.0139  0.5795 -0.0859
    1ACE      C    5  11.913   9.360  10.509  0.2747 -0.0915  0.8237
    1ACE      O    6  11.920   9.303  10.402  0.1910  0.1002 -0.0944
    2ALA      N    7  11.865   9.487  10.518 -0.0154 -0.7165  0.8618
    2ALA      H    8  11.877   9.534  10.606  2.9144  0.1806  0.1346
    2ALA     CA    9  11.765   9.550  10.424  0.2525 -0.2030  0.2065
    2ALA     HA   10  11.735   9.643  10.473 -0.6002 -0.4249  0.1281
    2ALA     CB   11  11.831   9.581  10.290 -0.0692 -0.0717 -0.4266
    2ALA    HB1   12  11.853   9.487  10.240 -1.3951 -0.4298 -0.3679
    2ALA    HB2   13  11.771   9.650  10.230  0.4319  1.9777  1.2554
    2ALA    HB3   14  11.928   9.627  10.306 -0.3985  1.4768 -2.4393
    2ALA      C   15  11.635   9.464  10.397  0.7248 -0.3760 -0.1535
    2ALA      O   16  11.630   9.346  10.428  0.2284 -0.2487  0.0735
    3ALA      N   17  11.523   9.522  10.337  0.1963 -0.3643 -0.1314
    3ALA      H   18  11.453   9.452  10.317  0.2820 -0.8304  1.0966
    3ALA     CA   19  11.493   9.656  10.301  0.4114 -0.9241  0.3235
    3ALA     HA   20  11.585   9.710  10.321  0.6414 -0.8039 -0.9736
    3ALA     CB   21  11.478   9.680  10.149  0.0215  0.2187 -0.6964
    3ALA    HB1   22  11.386   9.626  10.127 -0.1679 -0.4936  1.6144
    3ALA    HB2   23  11.454   9.783  10.123 -4.3150 -0.2877  0.6518
    3ALA    HB3   24  11.560   9.639  10.088  0.9704 -0.8406  1.2034
    3ALA      C   25  11.380   9.733  10.374 -0.3522 -0.8691 -0.2033
    3ALA      O   26  11.407   9.830  10.444  0.3387 -0.2967 -0.2282
    4ALA      N   27  11.257   9.682  10.362 -0.6941 -0.1653  0.8988
    4ALA      H   28  11.252   9.598  10.306 -0.8783  0.0928  0.5195
    4ALA     CA   29  11.133   9.714  10.436 -0.0921 -0.1677 -0.3169
    4ALA     HA   30  11.069   9.626  10.450 -1.2928  0.7950  0.4673
    4ALA     CB   31  11.167   9.749  10.580 -0.0503 -0.3622 -0.0839
    4ALA    HB1   32  11.218   9.845  10.586 -0.4274 -0.0738 -1.0884
    4ALA    HB2   33  11.078   9.746  10.643 -0.8393 -0.3248 -1.1643
    4ALA    HB3   34  11.240   9.682  10.625  0.9021  0.6212 -0.1411
    4ALA      C   35  11.032   9.803  10.357  0.1414 -0.3224 -0.3918
    4ALA      O   36  10.922   9.842  10.408 -0.4544  0.3958  0.3408
    5NME      N   37  11.063   9.829  10.227  0.2031 -0.2350 -0.4700
    5NME      H   38  11.153   9.797  10.192  1.1734  1.9652 -0.1319
    5NME    CH3   39  10.964   9.894  10.141  0.1288  0.4329  0.2104
    5NME   HH31   40  11.004   9.893  10.040  1.3221  0.0340  0.6711
    5NME   HH32   41  10.867   9.848  10.155  0.8398 -0.6990  1.6379
    5NME   HH33   42  10.957   9.996  10.181 -2.9046  0.6416 -0.6609
  20.91516  20.91516  20.91516
