Protein
   42
    1ACE   HH31    1   3.862  11.963  12.840  0.8712  0.8508  0.6494
    1ACE    CH3    2   3.934  11.887  12.869  0.5272  0.4929  0.5869
    1ACE   HH32    3   4.029  11.887  12.816  1.8417 -1.4288  2.8016
    1ACE   HH33    4   3.888  11.788  12.871  1.1362  0.2088  1.5781
    1ACE      C    5   3.979  11.908  13.009 -0.3747  0.0413  0.2233
    1ACE      O    6   3.940  11.828  13.097  0.3886  0.6990  0.5126
    2ALA      N    7   4.049  12.019  13.035  0.3226  0.0927 -0.0088
    2ALA      H    8   4.081  12.088  12.967  0.9958  2.7906  2.8131
    2ALA     CA    9   4.073  12.069  13.168  0.4170 -0.9360  0.2840
    2ALA     HA   10   4.046  12.001  13.248 -0.4625  0.0300  0.8419
    2ALA     CB   11   4.222  12.101  13.171 -1.1808  0.0414  0.3974
    2ALA    HB1   12   4.238  12.175  13.092 -1.5858 -0.4198 -0.1389
    2ALA    HB2   13   4.241  12.145  13.268 -2.5672 -2.0366  1.6863
    2ALA    HB3   14   4.286  12.015  13.151  1.8533  1.9606  1.0596
    2ALA      C   15   3.985  12.197  13.205 -0.5958  0.3148 -0.0470
    2ALA      O   16   3.968  12.278  13.118  0.0638  0.5384  0.1856
    3ALA      N   17   3.938  12.201  13.329  0.4617  0.0134  0.6430
    3ALA      H   18   3.975  12.133  13.394  3.8304  0.0186 -1.0688
    3ALA     CA   19   3.868  12.323  13.389 -0.4758 -0.0717 -0.3885
    3ALA     HA   20   3.778  12.340  13.331 -0.6104 -1.3546 -0.6104
    3ALA     CB   21   3.828  12.292  13.537 -0.2542 -0.1816  0.4850
    3ALA    HB1   22   3.771  12.382  13.562 -1.0063 -0.7106  0.6974
    3ALA    HB2   23   3.773  12.198  13.539  0.3160 -0.5417 -0.1885
    3ALA    HB3   24   3.920  12.303  13.595 -0.2899  0.5293  0.4185
    3ALA      C   25   3.963  12.444  13.383  0.8187 -0.3280 -0.0329
    3ALA      O   26   4.081  12.426  13.393  0.0824 -0.2409  0.1750
    4ALA      N   27   3.910  12.563  13.352 -0.2167  0.7956 -0.4688
    4ALA      H   28   3.809  12.561  13.346 -0.2040 -1.2730 -1.7012
    4ALA     CA   29   3.979  12.689  13.318 -0.7896 -0.2813  0.3620
    4ALA     HA   30   3.898  12.750  13.276 -0.2261  0.0836 -0.2115
    4ALA     CB   31   4.017  12.754  13.454  0.4329  0.4849  0.4620
    4ALA    HB1   32   3.941  12.742  13.531 -1.3073 -0.7616 -1.3369
    4ALA    HB2   33   4.113  12.707  13.476 -1.3279 -2.5775  2.4720
    4ALA    HB3   34   4.020  12.862  13.442  3.1884  0.3252 -1.4400
    4ALA      C   35   4.096  12.690  13.209  0.0498 -0.5128  0.4473
    4ALA      O   36   4.137  12.797  13.164  0.7551  0.1532 -0.0133
    5NME      N   37   4.142  12.572  13.174  0.4437  0.4700 -0.3434
    5NME      H   38   4.116  12.495  13.233 -0.5042  0.7962 -0.3198
    5NME    CH3   39   4.241  12.564  13.062  0.6102 -0.0759 -0.5248
    5NME   HH31   40   4.325  12.624  13.095  1.1575  0.2978 -2.4308
    5NME   HH32   41   4.271  12.464  13.030 -1.5063 -0.4250 -1.5691
    5NME   HH33   42   4.214  12.624  12.975  3.1637  3.6666  1.0214
  20.91516  20.91516  20.91516
