Protein
   42
    1ACE   HH31    1   6.846   8.870  11.465 -1.0594 -1.8473  2.4943
    1ACE    CH3    2   6.753   8.924  11.444 -0.1835 -0.8893  0.8451
    1ACE   HH32    3   6.777   9.021  11.401 -0.1976 -0.8071  1.0181
    1ACE   HH33    4   6.715   8.938  11.545 -0.0355 -2.5632  1.1671
    1ACE      C    5   6.663   8.843  11.347  0.4994  0.3277 -0.0829
    1ACE      O    6   6.715   8.773  11.260 -0.4279  0.1944 -0.0557
    2ALA      N    7   6.530   8.862  11.357 -0.4331 -0.4932  0.4107
    2ALA      H    8   6.487   8.911  11.435 -1.4062 -0.8925  0.1414
    2ALA     CA    9   6.439   8.785  11.276  0.6508  0.0372 -0.0121
    2ALA     HA   10   6.479   8.684  11.276  2.9849  0.8820 -0.7224
    2ALA     CB   11   6.311   8.774  11.361 -0.5017  0.0255  0.3136
    2ALA    HB1   12   6.250   8.695  11.318  0.0586 -0.6968  0.8110
    2ALA    HB2   13   6.330   8.732  11.460  0.0439 -0.8622 -0.1548
    2ALA    HB3   14   6.265   8.873  11.368 -2.8066 -0.9574 -0.0096
    2ALA      C   15   6.411   8.833  11.132 -0.3920  0.2899  0.1982
    2ALA      O   16   6.294   8.860  11.093 -0.3133 -0.8251  0.2346
    3ALA      N   17   6.520   8.831  11.053 -0.0265 -1.1474  0.2127
    3ALA      H   18   6.601   8.797  11.102 -0.4035  1.1520  2.6867
    3ALA     CA   19   6.525   8.876  10.915 -0.4004  0.3880 -0.1468
    3ALA     HA   20   6.476   8.971  10.894 -0.0737  0.4854 -0.4594
    3ALA     CB   21   6.676   8.894  10.886 -0.3400  0.3389  0.4242
    3ALA    HB1   22   6.713   8.793  10.901 -2.1859 -0.6798 -1.4231
    3ALA    HB2   23   6.684   8.919  10.780  0.8809 -0.4578  0.3070
    3ALA    HB3   24   6.721   8.979  10.938  0.4871  0.1455  0.0545
    3ALA      C   25   6.470   8.775  10.818  0.3882  0.0001 -0.0331
    3ALA      O   26   6.452   8.807  10.701  0.3696 -0.2297  0.7403
    4ALA      N   27   6.446   8.655  10.865 -0.2945  0.5402  0.2456
    4ALA      H   28   6.471   8.637  10.961  2.3060  0.7255 -0.3296
    4ALA     CA   29   6.361   8.557  10.794 -0.1795 -0.4369 -0.6314
    4ALA     HA   30   6.280   8.609  10.744  0.3280  0.4122 -0.5903
    4ALA     CB   31   6.447   8.483  10.685  0.3714  0.6136 -1.1272
    4ALA    HB1   32   6.511   8.415  10.743 -1.3534 -0.8908 -0.9144
    4ALA    HB2   33   6.367   8.439  10.626 -0.5433  0.2893  0.2998
    4ALA    HB3   34   6.511   8.556  10.635 -0.2118  2.3234  0.4972
    4ALA      C   35   6.294   8.462  10.895  0.2636  0.0969 -0.0799
    4ALA      O   36   6.340   8.454  11.010  0.1957  0.0181  0.4123
    5NME      N   37   6.182   8.398  10.855  0.1198 -0.2775  0.0293
    5NME      H   38   6.140   8.418  10.765 -0.5537  0.6091  0.5225
    5NME    CH3   39   6.111   8.302  10.939  0.4917  0.5191  0.2426
    5NME   HH31   40   6.102   8.343  11.039 -2.4040  0.5916  0.0641
    5NME   HH32   41   6.011   8.284  10.898  0.3284 -0.6075  1.0940
    5NME   HH33   42   6.169   8.210  10.942 -2.2259 -1.2905  1.1204
  20.91516  20.91516  20.91516
