Protein
   42
    1ACE   HH31    1   5.158   7.201  11.694 -0.0157 -1.4756 -1.9073
    1ACE    CH3    2   5.126   7.291  11.641  0.3987  0.1233  0.4387
    1ACE   HH32    3   5.143   7.281  11.534  3.5181 -2.2339  1.0077
    1ACE   HH33    4   5.157   7.388  11.680 -0.6380  1.1588 -1.1867
    1ACE      C    5   4.978   7.296  11.658  0.7058 -0.1336 -0.0132
    1ACE      O    6   4.908   7.323  11.563 -0.6492 -0.6018  0.3196
    2ALA      N    7   4.933   7.283  11.784 -0.0107 -0.0157  0.1546
    2ALA      H    8   5.002   7.285  11.859 -1.1555  3.3262  1.3054
    2ALA     CA    9   4.799   7.315  11.830  0.4563  0.5039 -0.2415
    2ALA     HA   10   4.795   7.270  11.929  1.5775 -1.8972 -1.2175
    2ALA     CB   11   4.774   7.463  11.835 -0.1183 -0.0206 -0.3008
    2ALA    HB1   12   4.684   7.476  11.895  0.0518  0.1034 -0.0665
    2ALA    HB2   13   4.857   7.525  11.869 -0.0119 -0.2267 -0.1846
    2ALA    HB3   14   4.746   7.495  11.735 -1.9825 -1.1524 -0.1832
    2ALA      C   15   4.675   7.251  11.763 -0.0825 -0.0489 -0.0241
    2ALA      O   16   4.564   7.270  11.808 -0.1079 -0.0025  0.2071
    3ALA      N   17   4.695   7.185  11.648 -0.1064 -0.1795  0.3337
    3ALA      H   18   4.792   7.178  11.620 -0.0658 -1.3207  0.7350
    3ALA     CA   19   4.597   7.138  11.546  0.1618 -0.6572  0.3030
    3ALA     HA   20   4.526   7.065  11.585 -0.7159  0.8037  1.5681
    3ALA     CB   21   4.515   7.262  11.496 -0.3845 -0.0541  0.4777
    3ALA    HB1   22   4.416   7.230  11.467 -1.7121  2.4488  1.8588
    3ALA    HB2   23   4.502   7.347  11.564  0.5417  0.5782 -0.0947
    3ALA    HB3   24   4.571   7.300  11.410  1.3169 -3.4322 -0.0508
    3ALA      C   25   4.660   7.065  11.429  0.5044 -0.2353 -0.3014
    3ALA      O   26   4.603   6.966  11.382  0.0129 -0.4897  0.2187
    4ALA      N   27   4.782   7.109  11.383  0.0139  0.4234 -0.6068
    4ALA      H   28   4.818   7.201  11.407 -0.7777  1.6864 -3.7557
    4ALA     CA   29   4.883   7.025  11.322 -0.1125  0.6991 -0.1683
    4ALA     HA   30   4.838   6.955  11.252 -3.5464  2.1318  0.4022
    4ALA     CB   31   4.981   7.115  11.245 -0.0297 -0.3042  0.2006
    4ALA    HB1   32   5.011   7.204  11.299 -2.6275 -0.2587  1.7489
    4ALA    HB2   33   5.073   7.064  11.214 -0.4640 -0.6152 -0.6347
    4ALA    HB3   34   4.936   7.171  11.164  3.7780  2.5962 -0.2032
    4ALA      C   35   4.963   6.949  11.421 -0.5780  0.6007 -0.5400
    4ALA      O   36   4.977   6.992  11.535 -0.0612 -0.6334  0.0502
    5NME      N   37   5.015   6.832  11.383  0.1907  0.1528  0.1847
    5NME      H   38   4.997   6.805  11.287 -3.2368  1.3427  0.3268
    5NME    CH3   39   5.087   6.744  11.469  0.2014 -0.6977  0.3672
    5NME   HH31   40   5.110   6.653  11.414  2.8678 -0.1863  0.4799
    5NME   HH32   41   5.183   6.791  11.494  0.1047  0.7151 -1.7153
    5NME   HH33   42   5.027   6.728  11.559  1.6832 -1.5818  1.2624
  20.91516  20.91516  20.91516
