Protein
   42
    1ACE   HH31    1   6.120  18.631  20.263  0.4098  1.6832 -2.1580
    1ACE    CH3    2   6.019  18.626  20.221 -0.7758 -0.1578  0.6003
    1ACE   HH32    3   5.969  18.550  20.281  1.3582 -2.0256  0.1404
    1ACE   HH33    4   6.027  18.599  20.116  1.8888  1.0706  0.4284
    1ACE      C    5   5.957  18.755  20.239  0.2193 -0.8200 -0.3108
    1ACE      O    6   5.835  18.762  20.260  0.1750  0.3611  0.8215
    2ALA      N    7   6.043  18.860  20.225  0.4841  0.0457 -0.1995
    2ALA      H    8   6.139  18.833  20.242  0.3752 -0.0454  0.2603
    2ALA     CA    9   6.021  18.999  20.186  0.3335 -0.1384  0.5598
    2ALA     HA   10   6.126  19.026  20.176  1.1533 -3.2314 -0.6604
    2ALA     CB   11   5.961  19.008  20.042 -0.1601  0.2398 -0.5272
    2ALA    HB1   12   6.024  18.949  19.976  1.9475  1.3528  0.4052
    2ALA    HB2   13   5.852  19.000  20.039 -0.3192  2.1815 -1.2777
    2ALA    HB3   14   5.991  19.106  20.006  0.0627  0.7850  1.0532
    2ALA      C   15   5.952  19.092  20.285 -0.5697 -0.4119  0.0124
    2ALA      O   16   5.997  19.211  20.303 -0.3956  0.4276  0.2192
    3ALA      N   17   5.838  19.037  20.346 -0.1074  0.6238 -0.3660
    3ALA      H   18   5.815  18.940  20.328 -2.6808  1.2103 -0.5387
    3ALA     CA   19   5.768  19.082  20.463 -0.2739  0.0146 -0.2928
    3ALA     HA   20   5.793  19.185  20.489 -1.3149  0.8024 -2.2370
    3ALA     CB   21   5.616  19.092  20.422  0.0843 -1.0277  0.4142
    3ALA    HB1   22   5.550  19.106  20.507 -0.6696 -0.6887 -0.2095
    3ALA    HB2   23   5.605  19.174  20.350 -0.8322  0.2752  1.9851
    3ALA    HB3   24   5.574  19.006  20.369 -0.8198 -0.5407  0.3105
    3ALA      C   25   5.794  18.996  20.584 -0.2333 -0.3802 -0.8285
    3ALA      O   26   5.705  18.982  20.669  0.6499 -0.1683  0.3076
    4ALA      N   27   5.915  18.940  20.594 -0.3820  0.3962 -0.4468
    4ALA      H   28   5.961  18.966  20.508 -2.0562  2.8408 -0.6907
    4ALA     CA   29   5.952  18.807  20.653  0.2160  0.2986  0.1077
    4ALA     HA   30   5.973  18.825  20.759 -1.3328  0.8481  0.3564
    4ALA     CB   31   5.836  18.705  20.627  0.9425 -0.5391 -0.0548
    4ALA    HB1   32   5.849  18.615  20.688  1.5606  0.0800  0.7517
    4ALA    HB2   33   5.746  18.746  20.673  0.8572 -0.4913 -0.2625
    4ALA    HB3   34   5.822  18.684  20.521 -0.1720 -1.7360  0.3082
    4ALA      C   35   6.081  18.765  20.587 -0.2779 -0.2117  0.1028
    4ALA      O   36   6.134  18.823  20.491  0.0136  0.2958  0.1814
    5NME      N   37   6.143  18.669  20.645  0.3967 -0.0573  0.3328
    5NME      H   38   6.097  18.635  20.728  0.7409  0.3095  0.6747
    5NME    CH3   39   6.265  18.604  20.597 -0.1988 -0.4577  0.1385
    5NME   HH31   40   6.240  18.504  20.564 -2.1157 -0.1598  0.5950
    5NME   HH32   41   6.294  18.648  20.501 -0.1369  3.1580  1.6561
    5NME   HH33   42   6.354  18.618  20.659  0.3980 -2.8725 -0.0801
  20.91516  20.91516  20.91516
