Protein
   42
    1ACE   HH31    1  11.238  12.457   9.266  0.0966 -2.4311 -0.4593
    1ACE    CH3    2  11.210  12.488   9.166  0.1195 -0.7155  0.0417
    1ACE   HH32    3  11.101  12.478   9.169 -0.0754  1.2191  1.6432
    1ACE   HH33    4  11.251  12.425   9.087  0.7554  0.0964 -0.2960
    1ACE      C    5  11.268  12.625   9.137  0.0108  0.0519  0.2481
    1ACE      O    6  11.365  12.632   9.062 -0.4473 -0.0576  0.1791
    2ALA      N    7  11.200  12.729   9.187  0.5502 -0.3503  0.1597
    2ALA      H    8  11.120  12.718   9.249  0.2596  3.0840  0.5872
    2ALA     CA    9  11.241  12.869   9.170 -0.5470  0.1383  0.1582
    2ALA     HA   10  11.350  12.872   9.159 -0.3526  0.1637  1.8374
    2ALA     CB   11  11.165  12.915   9.045  0.4869  0.2836 -0.5153
    2ALA    HB1   12  11.172  13.023   9.034 -0.6651  1.0035  4.0810
    2ALA    HB2   13  11.202  12.862   8.957 -1.5395  0.1075 -1.3120
    2ALA    HB3   14  11.062  12.879   9.049  0.8028 -0.6561 -0.6034
    2ALA      C   15  11.211  12.961   9.294  0.4936  0.6200  0.2374
    2ALA      O   16  11.115  12.936   9.369  0.1694  0.0160 -0.0011
    3ALA      N   17  11.306  13.056   9.308 -0.3621  0.1272  0.3582
    3ALA      H   18  11.375  13.067   9.235 -0.3686  1.7346  0.5628
    3ALA     CA   19  11.333  13.139   9.424  0.6826 -0.3971 -0.2654
    3ALA     HA   20  11.316  13.243   9.394  0.5563  0.0139  1.1526
    3ALA     CB   21  11.251  13.106   9.546  0.0338  0.1195  0.4111
    3ALA    HB1   22  11.248  13.000   9.572  1.2901 -0.2225 -0.7237
    3ALA    HB2   23  11.285  13.175   9.623  2.0937  0.0915 -0.4013
    3ALA    HB3   24  11.147  13.132   9.527  0.0686 -0.1077 -0.1275
    3ALA      C   25  11.480  13.132   9.462 -0.0604  0.1539  0.6829
    3ALA      O   26  11.541  13.235   9.455 -0.1911  0.2239 -0.0355
    4ALA      N   27  11.541  13.016   9.484  0.5700 -0.4340  0.0298
    4ALA      H   28  11.476  12.942   9.504  0.3740 -0.2545  0.0608
    4ALA     CA   29  11.647  12.962   9.399 -0.5187  0.0738  0.7386
    4ALA     HA   30  11.743  12.989   9.443  0.3819 -4.1160  1.7669
    4ALA     CB   31  11.621  12.808   9.402  0.0712 -0.0418 -0.1594
    4ALA    HB1   32  11.514  12.788   9.395  0.3230 -1.8951  0.6686
    4ALA    HB2   33  11.694  12.764   9.335  2.3531  2.1920  0.6887
    4ALA    HB3   34  11.650  12.771   9.500  1.0100 -0.3764 -0.5580
    4ALA      C   35  11.646  13.022   9.255 -0.4150 -0.3144 -0.0505
    4ALA      O   36  11.552  13.017   9.176 -0.0578 -0.0900  0.4426
    5NME      N   37  11.771  13.064   9.218 -0.1839 -0.1706  0.2485
    5NME      H   38  11.831  13.067   9.300  0.1420 -0.7538  0.0402
    5NME    CH3   39  11.826  13.077   9.079  0.1874  0.4562 -0.1295
    5NME   HH31   40  11.742  13.067   9.010 -0.1532  0.9329  0.2048
    5NME   HH32   41  11.881  13.170   9.064  0.6371  0.4135  1.1806
    5NME   HH33   42  11.896  12.996   9.061  1.9450  1.9304 -0.3027
  20.91516  20.91516  20.91516
