Protein
   32
    1ACE   HH31    1  13.353  14.271  14.454 -0.3671 -1.5931 -1.1969
    1ACE    CH3    2  13.390  14.330  14.370 -0.1205 -0.2092 -0.1564
    1ACE   HH32    3  13.473  14.269  14.334  0.7095 -0.7310  2.4307
    1ACE   HH33    4  13.430  14.428  14.397  0.5542  0.2604 -2.4653
    1ACE      C    5  13.296  14.342  14.256 -0.2468  0.1018  0.5938
    1ACE      O    6  13.327  14.319  14.138  0.3529  0.2909 -0.1802
    2ALA      N    7  13.179  14.383  14.294  0.1613 -0.5282  0.1706
    2ALA      H    8  13.174  14.396  14.394  2.5839 -3.2656  0.7865
    2ALA     CA    9  13.064  14.405  14.215 -0.0906  0.0952 -0.3962
    2ALA     HA   10  12.988  14.405  14.293 -0.6884 -2.3938 -0.8975
    2ALA     CB   11  13.065  14.548  14.154 -0.5358 -0.2355 -0.0611
    2ALA    HB1   12  12.973  14.560  14.097 -0.6340  1.4406  0.4039
    2ALA    HB2   13  13.066  14.631  14.224  2.4007 -1.0460  1.0422
    2ALA    HB3   14  13.148  14.553  14.083 -0.9699  2.4125 -0.5017
    2ALA      C   15  13.024  14.298  14.118 -0.0166  0.8466  0.2695
    2ALA      O   16  12.918  14.243  14.137 -0.1249  0.2176 -0.1068
    3ALA      N   17  13.104  14.265  14.017 -0.3274 -0.2163  0.1368
    3ALA      H   18  13.197  14.303  14.021 -0.9242  1.5223 -1.2613
    3ALA     CA   19  13.082  14.168  13.915  0.3032  0.1100  0.6830
    3ALA     HA   20  13.036  14.077  13.954  1.2367 -0.7868 -0.2268
    3ALA     CB   21  12.982  14.229  13.812 -0.0924 -0.1180  0.1959
    3ALA    HB1   22  13.026  14.319  13.770  0.3643  1.0887  3.0936
    3ALA    HB2   23  12.969  14.160  13.728 -1.2959 -0.1931  0.4349
    3ALA    HB3   24  12.887  14.246  13.862  0.1569  1.2327  0.2294
    3ALA      C   25  13.212  14.106  13.848 -0.2391  0.3094 -0.0842
    3ALA      O   26  13.202  14.005  13.778 -0.1214  0.1471 -0.5917
    4NME      N   27  13.331  14.158  13.882 -0.5109  0.1321 -0.2441
    4NME      H   28  13.334  14.225  13.958  0.9293 -2.8555  2.6164
    4NME    CH3   29  13.455  14.095  13.833 -0.0926  0.0385  0.0525
    4NME   HH31   30  13.527  14.176  13.817  2.5980 -2.1573  0.3752
    4NME   HH32   31  13.495  14.031  13.911  0.5322  0.6170  0.2202
    4NME   HH33   32  13.449  14.049  13.735  0.1857 -1.6400  0.7902
  20.99041  20.99041  20.99041
