Protein
   42
    1ACE   HH31    1  11.792  10.034   7.600 -1.0116  0.6871  1.2934
    1ACE    CH3    2  11.891  10.075   7.618 -0.3063 -0.1245 -0.5257
    1ACE   HH32    3  11.870  10.170   7.569 -2.0325 -0.9469 -1.5118
    1ACE   HH33    4  11.964  10.020   7.559 -2.4250 -1.7461 -1.7820
    1ACE      C    5  11.924  10.079   7.768  0.1830  0.2725  0.3167
    1ACE      O    6  11.868  10.001   7.841  0.2656  0.0396 -0.4277
    2ALA      N    7  12.017  10.164   7.813  0.7267 -0.5713  0.0200
    2ALA      H    8  12.066  10.233   7.758  2.3811 -1.3732  0.4055
    2ALA     CA    9  12.050  10.190   7.954  0.0022  0.5388  0.3384
    2ALA     HA   10  12.113  10.279   7.957 -3.0003  2.8128  0.3567
    2ALA     CB   11  11.927  10.246   8.038  0.0396  0.3552 -0.0101
    2ALA    HB1   12  11.838  10.186   8.021  0.9492 -1.3925  1.1523
    2ALA    HB2   13  11.943  10.239   8.145  2.1157  0.7180 -0.2507
    2ALA    HB3   14  11.908  10.352   8.022 -2.4990 -0.1597 -0.8837
    2ALA      C   15  12.135  10.079   8.013 -0.1831 -0.0562  0.4795
    2ALA      O   16  12.253  10.077   7.993 -0.2090 -0.2696 -0.4273
    3ALA      N   17  12.069   9.985   8.081  0.0531  0.3893 -0.2068
    3ALA      H   18  11.969   9.997   8.091  0.0794 -0.7231  2.1361
    3ALA     CA   19  12.127   9.857   8.139 -0.0903 -0.2745 -0.0860
    3ALA     HA   20  12.235   9.867   8.146  0.1642 -2.0091 -0.9294
    3ALA     CB   21  12.079   9.822   8.279 -0.5051 -0.8065 -0.3836
    3ALA    HB1   22  11.971   9.810   8.287 -0.4716 -1.1759 -0.4654
    3ALA    HB2   23  12.122   9.725   8.305 -1.6825 -0.7808  2.0037
    3ALA    HB3   24  12.103   9.903   8.348 -0.0281  0.0695 -1.5403
    3ALA      C   25  12.112   9.737   8.042  0.4000  0.6949  0.5908
    3ALA      O   26  12.187   9.640   8.059  0.2198  0.1818 -0.1390
    4ALA      N   27  12.036   9.753   7.928 -0.2186 -0.2028  0.4447
    4ALA      H   28  11.987   9.840   7.918 -0.9390 -0.4308  1.7744
    4ALA     CA   29  12.023   9.647   7.826 -0.0859  0.1856 -0.6943
    4ALA     HA   30  12.041   9.551   7.873 -1.1268  0.3373  0.0479
    4ALA     CB   31  11.890   9.641   7.753  0.5168  0.0807  0.7134
    4ALA    HB1   32  11.875   9.742   7.713 -1.4409  0.0493  1.2634
    4ALA    HB2   33  11.893   9.563   7.677  0.2401 -1.7076  2.4740
    4ALA    HB3   34  11.814   9.611   7.825  0.1521  0.7546  0.6238
    4ALA      C   35  12.141   9.662   7.725 -0.4583  0.2770 -0.2357
    4ALA      O   36  12.127   9.694   7.609  0.2511  0.5377  0.1903
    5NME      N   37  12.263   9.625   7.772 -0.5561 -0.7333  0.1657
    5NME      H   38  12.262   9.579   7.862 -3.2003 -1.9183 -0.3705
    5NME    CH3   39  12.382   9.623   7.679 -0.9964  0.3547  0.0878
    5NME   HH31   40  12.357   9.569   7.588 -1.9999 -0.2666  0.7225
    5NME   HH32   41  12.414   9.724   7.653 -3.5161  0.5761 -2.6869
    5NME   HH33   42  12.461   9.573   7.735 -0.9174 -0.7654 -0.9913
  20.91516  20.91516  20.91516
