<<<<<<< HEAD
Protein
   42
    1ACE   HH31    1  16.491   3.572  14.086 -1.5123 -1.4277 -1.1661
    1ACE    CH3    2  16.397   3.596  14.135 -0.4236 -0.3853  0.4590
    1ACE   HH32    3  16.385   3.704  14.126 -3.9764 -0.7608 -0.7124
    1ACE   HH33    4  16.393   3.560  14.238 -0.2397  0.1958  0.6801
    1ACE      C    5  16.296   3.522  14.048  0.1446 -0.3742  0.6151
    1ACE      O    6  16.277   3.404  14.062  0.2719  0.5252  0.4308
    2ALA      N    7  16.241   3.586  13.942 -0.1535 -1.0690  0.1531
    2ALA      H    8  16.272   3.681  13.926 -0.5007 -0.9798 -0.0366
    2ALA     CA    9  16.151   3.525  13.844 -0.1335  0.9588 -0.2371
    2ALA     HA   10  16.069   3.477  13.898  1.5257 -2.5169 -0.5765
    2ALA     CB   11  16.097   3.654  13.776 -0.0694  0.3266 -0.0990
    2ALA    HB1   12  16.021   3.607  13.714  0.0808 -1.6968  1.1575
    2ALA    HB2   13  16.042   3.714  13.849  0.1107  0.7510 -0.3107
    2ALA    HB3   14  16.165   3.712  13.713  0.6467 -1.1596 -0.7500
    2ALA      C   15  16.221   3.426  13.747 -0.2760  0.2028 -0.3271
    2ALA      O   16  16.260   3.462  13.639  0.5979 -0.2142  0.2815
    3ALA      N   17  16.208   3.298  13.791  0.5329  0.1758  0.5676
    3ALA      H   18  16.176   3.303  13.886 -2.5793  1.5717 -0.3931
    3ALA     CA   19  16.241   3.175  13.731 -0.4004  0.6665 -0.7547
    3ALA     HA   20  16.173   3.136  13.655 -0.8281 -1.5895  0.6882
    3ALA     CB   21  16.384   3.189  13.687 -0.1532 -0.0258  0.9088
    3ALA    HB1   22  16.386   3.264  13.607  3.8257 -1.2642 -0.4208
    3ALA    HB2   23  16.442   3.222  13.773  3.0880 -2.0091 -0.3167
    3ALA    HB3   24  16.420   3.091  13.656 -0.0399  0.2838  0.0168
    3ALA      C   25  16.239   3.065  13.842  0.1724  0.3664 -0.3974
    3ALA      O   26  16.180   2.964  13.822 -0.2374  0.1704 -0.0629
    4ALA      N   27  16.296   3.090  13.959 -0.2080 -0.2517 -0.2601
    4ALA      H   28  16.316   3.188  13.974 -0.3851  0.4255 -3.6967
    4ALA     CA   29  16.273   2.998  14.068 -0.6329  0.6383 -0.3787
    4ALA     HA   30  16.327   3.051  14.147 -2.0017  2.5383 -0.6209
    4ALA     CB   31  16.131   3.012  14.127 -0.3711  0.0725 -0.5344
    4ALA    HB1   32  16.135   2.972  14.229  0.2230  2.1691  0.3251
    4ALA    HB2   33  16.105   3.117  14.142  1.5861  0.4004  0.8678
    4ALA    HB3   34  16.052   2.955  14.078  1.2032 -2.4419 -0.3393
    4ALA      C   35  16.333   2.850  14.066  0.1786  0.0375 -0.5585
    4ALA      O   36  16.321   2.785  14.175  0.0963  0.1351 -0.1709
    5NME      N   37  16.394   2.802  13.955  0.1534 -0.0461  0.0293
    5NME      H   38  16.380   2.846  13.864 -1.3583  0.8702  0.6686
    5NME    CH3   39  16.449   2.668  13.948  0.5230  0.0493  0.2013
    5NME   HH31   40  16.383   2.614  13.881  1.1312  0.7925 -1.0429
    5NME   HH32   41  16.552   2.670  13.912  1.1041 -1.5868  1.5608
    5NME   HH33   42  16.454   2.608  14.038  0.5049 -0.6698 -0.2703
  20.91516  20.91516  20.91516
=======
Protein
   42
    1ACE   HH31    1  17.235   6.171  11.833 -0.7454  1.0360  0.3221
    1ACE    CH3    2  17.169   6.085  11.843  0.1844  0.2682  0.0818
    1ACE   HH32    3  17.069   6.117  11.812 -1.0384 -0.5885  2.8647
    1ACE   HH33    4  17.159   6.048  11.945 -0.9957  2.4458  0.8163
    1ACE      C    5  17.215   5.981  11.742 -0.2065  0.2342  0.0772
    1ACE      O    6  17.294   6.006  11.649 -0.2938 -0.1668 -0.0884
    2ALA      N    7  17.166   5.855  11.770  0.7964 -0.6545 -0.6340
    2ALA      H    8  17.081   5.846  11.822  0.4768  0.7268 -0.8489
    2ALA     CA    9  17.200   5.746  11.678  0.4383 -0.4105  0.0978
    2ALA     HA   10  17.206   5.775  11.573 -0.3418 -1.3466 -0.2131
    2ALA     CB   11  17.328   5.676  11.716 -0.4661  0.2928 -0.2667
    2ALA    HB1   12  17.362   5.605  11.641 -2.3245 -0.4856 -0.4136
    2ALA    HB2   13  17.406   5.751  11.734  0.0551 -0.9515  3.5537
    2ALA    HB3   14  17.313   5.633  11.815 -2.3710 -1.7572 -1.3441
    2ALA      C   15  17.077   5.657  11.693 -0.3311  0.1479  0.2159
    2ALA      O   16  16.974   5.688  11.752  0.0663 -0.0033  0.1486
    3ALA      N   17  17.073   5.541  11.630  0.3009 -0.5543 -0.3503
    3ALA      H   18  17.155   5.530  11.572  1.3918  1.0903  0.8063
    3ALA     CA   19  16.979   5.432  11.646 -0.2818  0.5296  0.3906
    3ALA     HA   20  17.030   5.347  11.602 -1.0010  0.2874  0.0087
    3ALA     CB   21  16.974   5.389  11.792 -0.4459  0.3925 -0.3580
    3ALA    HB1   22  16.926   5.467  11.850 -0.4714  0.2609 -0.2007
    3ALA    HB2   23  16.919   5.297  11.810  2.4830 -1.4360 -0.0189
    3ALA    HB3   24  17.072   5.367  11.834 -1.7200 -1.5199  1.8688
    3ALA      C   25  16.847   5.446  11.578  0.1879  0.0665  0.3363
    3ALA      O   26  16.831   5.360  11.494 -0.5964 -0.3851  0.2784
    4ALA      N   27  16.768   5.549  11.609  0.5177  0.2049 -0.5922
    4ALA      H   28  16.802   5.603  11.687  2.5413 -0.7510 -0.7434
    4ALA     CA   29  16.628   5.571  11.562  0.0262  0.0299  0.5422
    4ALA     HA   30  16.597   5.673  11.585 -0.7366  0.8109 -3.1401
    4ALA     CB   31  16.621   5.568  11.405  0.5184 -0.1188 -0.2522
    4ALA    HB1   32  16.657   5.479  11.353  1.2159  0.5742 -0.9916
    4ALA    HB2   33  16.519   5.570  11.366  0.2730 -0.4597  0.3447
    4ALA    HB3   34  16.679   5.650  11.362  1.1458 -0.0254  0.7676
    4ALA      C   35  16.514   5.482  11.625 -0.4000 -0.5839  0.4559
    4ALA      O   36  16.412   5.533  11.671 -0.4951 -0.0188  0.3565
    5NME      N   37  16.545   5.349  11.620  0.4812 -0.1138 -0.0788
    5NME      H   38  16.632   5.325  11.573  0.4666  1.9219 -1.2960
    5NME    CH3   39  16.446   5.250  11.676 -0.1654  0.1512  0.3257
    5NME   HH31   40  16.362   5.302  11.720  1.3911  1.6409  1.6843
    5NME   HH32   41  16.418   5.180  11.597  2.6358 -1.0190  0.2325
    5NME   HH33   42  16.483   5.180  11.751  0.1479 -0.2804 -0.2210
  20.91516  20.91516  20.91516
>>>>>>> e505351e8895c44bcd67ad8436d05c0eaca14691
