Protein
   42
    1ACE   HH31    1   6.556  13.331   9.558  0.9249 -1.4194  0.8982
    1ACE    CH3    2   6.619  13.399   9.616 -0.2114  0.8898 -0.4721
    1ACE   HH32    3   6.722  13.407   9.582  0.6899  1.5108  2.1045
    1ACE   HH33    4   6.625  13.366   9.720  1.0995  2.8391  0.1255
    1ACE      C    5   6.561  13.542   9.620  0.0258  0.5271  0.8091
    1ACE      O    6   6.637  13.636   9.648  0.6338 -0.1398  0.0485
    2ALA      N    7   6.434  13.555   9.607 -0.3537  0.1635 -0.1213
    2ALA      H    8   6.368  13.481   9.587 -1.6036  0.9531  0.9471
    2ALA     CA    9   6.363  13.679   9.630  0.5535 -0.5802  0.0481
    2ALA     HA   10   6.411  13.754   9.567 -0.1004  0.9147  1.2531
    2ALA     CB   11   6.214  13.645   9.591 -0.9192  0.5085 -0.0508
    2ALA    HB1   12   6.198  13.589   9.499 -1.2665  0.4253  0.0585
    2ALA    HB2   13   6.174  13.579   9.669 -0.8184 -1.2804 -1.4486
    2ALA    HB3   14   6.152  13.735   9.587 -0.8808  0.5364  0.0147
    2ALA      C   15   6.365  13.726   9.776 -0.0803  0.0916  0.1443
    2ALA      O   16   6.322  13.653   9.865 -0.6031 -0.8553 -0.0499
    3ALA      N   17   6.399  13.846   9.816  0.7483 -0.0893 -0.0218
    3ALA      H   18   6.363  13.873   9.906 -0.1247  4.0930 -1.4168
    3ALA     CA   19   6.442  13.967   9.740 -0.0790  0.3050 -0.7102
    3ALA     HA   20   6.428  13.963   9.632  0.1154 -1.2403 -0.6973
    3ALA     CB   21   6.355  14.083   9.784  0.9470 -0.5058  0.0509
    3ALA    HB1   22   6.253  14.075   9.746 -0.3296  1.3511  2.7662
    3ALA    HB2   23   6.339  14.096   9.891 -0.2854 -2.3124  0.1321
    3ALA    HB3   24   6.395  14.174   9.740 -0.8515  1.2430  1.8039
    3ALA      C   25   6.593  13.997   9.766 -0.3889 -0.0864 -0.0228
    3ALA      O   26   6.646  14.090   9.698  0.3775  0.1748  0.3903
    4ALA      N   27   6.661  13.927   9.857  0.2608 -0.4364  0.0686
    4ALA      H   28   6.602  13.854   9.895 -2.3355  0.6282 -1.6705
    4ALA     CA   29   6.807  13.908   9.858  0.3799 -0.3071  0.9963
    4ALA     HA   30   6.840  13.989   9.923 -1.5204  1.8057 -0.5256
    4ALA     CB   31   6.835  13.770   9.924  0.0976 -0.0681 -0.5091
    4ALA    HB1   32   6.784  13.692   9.868 -1.6438  0.7370 -0.1512
    4ALA    HB2   33   6.942  13.748   9.927  0.5010  1.7358  0.3833
    4ALA    HB3   34   6.792  13.768  10.024  0.4911  1.0871 -0.2942
    4ALA      C   35   6.883  13.931   9.725 -0.8890 -0.6448 -0.5892
    4ALA      O   36   6.981  14.012   9.724  0.6287 -0.4762  0.1994
    5NME      N   37   6.838  13.867   9.619 -0.4766  0.7806  0.6787
    5NME      H   38   6.754  13.814   9.634  1.0436 -2.7916 -2.0783
    5NME    CH3   39   6.875  13.903   9.478  1.3302 -0.4378  0.1840
    5NME   HH31   40   6.950  13.841   9.429  1.5956  0.6690 -0.8562
    5NME   HH32   41   6.778  13.912   9.429  1.2922  2.3659  0.6291
    5NME   HH33   42   6.918  14.002   9.491  2.1444 -0.7445 -0.1248
  20.91516  20.91516  20.91516
