Protein
   42
    1ACE   HH31    1   6.767  15.466   4.807 -0.4564  0.0385  1.3200
    1ACE    CH3    2   6.856  15.411   4.837 -0.1977 -0.3129 -0.0233
    1ACE   HH32    3   6.898  15.364   4.748 -1.7910  0.6549 -1.3406
    1ACE   HH33    4   6.845  15.349   4.926 -1.4604  2.0208  1.5454
    1ACE      C    5   6.963  15.505   4.889 -0.7344  0.2552  0.0703
    1ACE      O    6   7.016  15.490   4.999  0.3391 -0.3144  0.2365
    2ALA      N    7   7.000  15.606   4.810 -0.8034  0.0323 -0.1438
    2ALA      H    8   6.972  15.614   4.713  1.2066 -2.7195 -1.0967
    2ALA     CA    9   7.080  15.721   4.852  0.5549  0.7415  0.5735
    2ALA     HA   10   7.180  15.682   4.874  0.4864  0.6002  0.6402
    2ALA     CB   11   7.088  15.816   4.735  0.4835  0.3340  0.1305
    2ALA    HB1   12   7.129  15.769   4.646 -0.4033  1.0284 -0.6487
    2ALA    HB2   13   6.993  15.858   4.705  1.1876 -0.8041 -4.3550
    2ALA    HB3   14   7.151  15.900   4.766  2.2638 -1.5148  1.9124
    2ALA      C   15   7.029  15.796   4.978  0.6419 -0.3840  0.0024
    2ALA      O   16   6.926  15.864   4.962  0.2971  0.5152 -0.6122
    3ALA      N   17   7.098  15.807   5.093  0.1563 -0.6113 -0.2083
    3ALA      H   18   7.043  15.840   5.171  1.3181 -2.4009  1.4589
    3ALA     CA   19   7.232  15.756   5.117  0.1328  0.3493 -0.3924
    3ALA     HA   20   7.244  15.650   5.096  0.0664 -0.2499  2.2538
    3ALA     CB   21   7.332  15.850   5.034 -0.4798 -0.7733  0.2695
    3ALA    HB1   22   7.325  15.832   4.927 -1.1439  0.1796  0.1442
    3ALA    HB2   23   7.316  15.956   5.053 -1.4079 -0.9427  0.4969
    3ALA    HB3   24   7.434  15.821   5.059  0.1989 -1.2977 -2.7690
    3ALA      C   25   7.256  15.773   5.275 -0.1415  0.1497 -0.0562
    3ALA      O   26   7.286  15.884   5.314  0.5426 -0.9447 -0.3204
    4ALA      N   27   7.249  15.663   5.350 -0.7773 -0.2457 -0.6559
    4ALA      H   28   7.237  15.572   5.308  1.0232 -0.9041  0.1525
    4ALA     CA   29   7.314  15.665   5.484 -0.3364 -0.0086 -0.9690
    4ALA     HA   30   7.270  15.743   5.547  0.4013 -0.0258 -0.4192
    4ALA     CB   31   7.290  15.541   5.570  0.3054 -0.0964 -0.3276
    4ALA    HB1   32   7.314  15.455   5.507  2.1920 -0.4473  0.7736
    4ALA    HB2   33   7.359  15.530   5.654  0.7055 -2.8756 -0.9054
    4ALA    HB3   34   7.187  15.523   5.602  0.6704 -1.5607  0.1315
    4ALA      C   35   7.466  15.692   5.472  0.4960 -0.3091  1.0980
    4ALA      O   36   7.542  15.611   5.418  0.2021 -0.4164 -0.0808
    5NME      N   37   7.512  15.805   5.519 -0.0905  0.5925  0.7044
    5NME      H   38   7.444  15.875   5.544 -2.5993 -1.0166 -1.1033
    5NME    CH3   39   7.656  15.839   5.524  1.2952 -0.4677 -0.0561
    5NME   HH31   40   7.694  15.795   5.616  0.0471 -0.9364  0.2620
    5NME   HH32   41   7.719  15.803   5.442  2.0907  2.6849 -0.9668
    5NME   HH33   42   7.665  15.947   5.526 -2.2893  0.0138 -1.4741
  20.91516  20.91516  20.91516
