Protein
   42
    1ACE   HH31    1   6.616   4.247  12.315  1.5546  0.4527  1.7620
    1ACE    CH3    2   6.680   4.258  12.227 -0.4329 -0.4417  0.1068
    1ACE   HH32    3   6.640   4.313  12.142 -1.8110 -1.2180  0.2287
    1ACE   HH33    4   6.724   4.165  12.191  1.4778 -0.5566  2.4764
    1ACE      C    5   6.801   4.336  12.269 -0.2411  0.4184 -0.7290
    1ACE      O    6   6.814   4.448  12.229  0.1920  0.0093  0.0608
    2ALA      N    7   6.896   4.273  12.338  0.5319 -0.4719 -0.4465
    2ALA      H    8   6.889   4.178  12.371 -0.9362 -0.0978  0.3737
    2ALA     CA    9   7.033   4.325  12.356  0.9871  0.1994  0.1602
    2ALA     HA   10   7.056   4.398  12.279 -1.5923 -0.4909 -1.3975
    2ALA     CB   11   7.044   4.382  12.502 -0.3789 -0.2374  0.1816
    2ALA    HB1   12   7.018   4.311  12.580 -0.8271 -0.2036  0.0647
    2ALA    HB2   13   7.145   4.414  12.528 -0.3506  0.6338 -0.9540
    2ALA    HB3   14   6.980   4.469  12.513 -0.3548  0.0832 -1.8165
    2ALA      C   15   7.125   4.208  12.336  0.3130 -0.0895  0.1533
    2ALA      O   16   7.092   4.100  12.386 -0.3445  0.2771  0.3351
    3ALA      N   17   7.238   4.220  12.262  0.1699 -0.0817  0.1833
    3ALA      H   18   7.297   4.138  12.256 -2.3730 -1.9576 -0.5649
    3ALA     CA   19   7.268   4.331  12.169  0.1098  0.2091  0.7779
    3ALA     HA   20   7.245   4.431  12.206  0.1833 -0.2817  2.2311
    3ALA     CB   21   7.417   4.325  12.135 -1.0538 -0.2274  0.7020
    3ALA    HB1   22   7.448   4.421  12.092 -1.0725 -0.8744 -0.8215
    3ALA    HB2   23   7.454   4.315  12.237 -0.6005 -5.3034  0.3149
    3ALA    HB3   24   7.445   4.235  12.080 -2.7394  1.3581 -3.1618
    3ALA      C   25   7.187   4.326  12.036  0.0645  0.3699 -0.2388
    3ALA      O   26   7.101   4.242  12.021  0.3022 -0.3984  0.2240
    4ALA      N   27   7.229   4.405  11.941  0.5476  0.0940 -0.4121
    4ALA      H   28   7.312   4.455  11.968  1.3852 -3.3663  4.6217
    4ALA     CA   29   7.186   4.414  11.807 -0.0098 -0.7670 -0.6701
    4ALA     HA   30   7.094   4.357  11.795  0.0140 -1.0259  0.3151
    4ALA     CB   31   7.153   4.559  11.779  0.3100  0.1682 -0.1002
    4ALA    HB1   32   7.069   4.592  11.840  1.3017  1.2474  0.7135
    4ALA    HB2   33   7.235   4.621  11.815  1.6369 -2.2443  1.1941
    4ALA    HB3   34   7.117   4.576  11.677 -1.9501 -3.7264 -0.1143
    4ALA      C   35   7.284   4.353  11.705 -0.2846  0.1407 -0.4855
    4ALA      O   36   7.405   4.367  11.731 -0.1290  0.0902  0.0444
    5NME      N   37   7.242   4.293  11.594 -0.4077 -0.1436 -0.2778
    5NME      H   38   7.144   4.267  11.590 -0.0590 -1.8695  1.2317
    5NME    CH3   39   7.327   4.245  11.489  0.0202  0.4275 -0.2215
    5NME   HH31   40   7.429   4.231  11.526 -0.3764  1.3251  1.3113
    5NME   HH32   41   7.285   4.148  11.465  0.5696 -0.1965  1.2038
    5NME   HH33   42   7.320   4.308  11.401 -0.9226  1.3888  0.5238
  20.91516  20.91516  20.91516
