Protein
   42
    1ACE   HH31    1  11.353  11.996  10.565  1.6027  1.1560 -1.2537
    1ACE    CH3    2  11.277  12.004  10.487 -0.2223 -0.9223  0.1494
    1ACE   HH32    3  11.307  11.954  10.395  0.3215  1.1133 -0.8417
    1ACE   HH33    4  11.265  12.112  10.485 -0.7127 -0.9610  0.8235
    1ACE      C    5  11.141  11.938  10.525 -0.3966  0.1334 -0.1578
    1ACE      O    6  11.080  11.868  10.446 -0.6005 -0.5674  0.2884
    2ALA      N    7  11.115  11.946  10.653 -0.0036  0.6631  0.0251
    2ALA      H    8  11.184  11.983  10.717  0.1976 -2.6208  1.9480
    2ALA     CA    9  10.995  11.893  10.714  0.1020 -0.3793 -0.4377
    2ALA     HA   10  10.991  11.937  10.814 -1.4943  0.6561 -0.9238
    2ALA     CB   11  10.873  11.950  10.649 -0.3919  0.5662 -0.3816
    2ALA    HB1   12  10.843  11.902  10.557 -2.0880  1.0186 -0.1067
    2ALA    HB2   13  10.788  11.937  10.716 -0.9538  0.6959 -1.0593
    2ALA    HB3   14  10.881  12.058  10.639  2.7455  0.8356  2.9107
    2ALA      C   15  10.998  11.738  10.733  0.2058  0.5129  1.1808
    2ALA      O   16  10.983  11.682  10.841 -0.2270  0.0840 -0.6110
    3ALA      N   17  11.003  11.666  10.621 -0.0519 -0.4820 -0.8287
    3ALA      H   18  10.998  11.727  10.541  0.8655 -1.7444 -1.8939
    3ALA     CA   19  11.042  11.525  10.602 -0.1400 -0.1275  0.0382
    3ALA     HA   20  11.115  11.524  10.521 -0.3551 -0.1031 -0.1570
    3ALA     CB   21  11.133  11.457  10.709  0.2064  0.3264  0.1456
    3ALA    HB1   22  11.162  11.360  10.669  3.5333  1.7793 -1.3021
    3ALA    HB2   23  11.226  11.511  10.723  0.0307  1.2915 -2.0698
    3ALA    HB3   24  11.081  11.441  10.803  0.7261  0.0310  0.3827
    3ALA      C   25  10.919  11.436  10.561  0.2981  0.0351 -0.6531
    3ALA      O   26  10.941  11.317  10.532 -0.2123  0.1913 -0.8121
    4ALA      N   27  10.794  11.489  10.571  0.0683 -0.9498 -0.4368
    4ALA      H   28  10.788  11.587  10.595  0.5165 -1.7349  3.6362
    4ALA     CA   29  10.674  11.414  10.568  0.3665 -0.0770  0.4860
    4ALA     HA   30  10.676  11.340  10.647  2.5371  0.5812  1.1398
    4ALA     CB   31  10.563  11.511  10.601 -0.2338  0.1130  0.5825
    4ALA    HB1   32  10.470  11.462  10.628  0.4561 -0.8720  1.2626
    4ALA    HB2   33  10.598  11.579  10.679 -1.6649  2.1866 -0.5075
    4ALA    HB3   34  10.542  11.569  10.511  0.8998 -0.9349 -0.3957
    4ALA      C   35  10.630  11.335  10.441  0.2315  0.6819  0.6990
    4ALA      O   36  10.512  11.302  10.422  0.1466 -0.0824  0.0326
    5NME      N   37  10.715  11.326  10.339 -0.8218 -0.5955 -0.1571
    5NME      H   38  10.813  11.328  10.363 -0.0130 -0.7568 -3.0924
    5NME    CH3   39  10.672  11.289  10.203  0.0658  0.4010 -0.0800
    5NME   HH31   40  10.567  11.314  10.190  0.1579 -0.0186 -1.8861
    5NME   HH32   41  10.729  11.346  10.129  2.8141 -0.4440  1.2451
    5NME   HH33   42  10.686  11.181  10.193 -2.0023 -0.0248  1.1498
  20.91516  20.91516  20.91516
