Protein
   42
    1ACE   HH31    1  11.332   5.431  10.089 -0.9010  0.2517 -1.0441
    1ACE    CH3    2  11.351   5.516  10.023 -0.2647  0.3114 -0.7855
    1ACE   HH32    3  11.277   5.592  10.047 -0.4321 -0.1486  0.2116
    1ACE   HH33    4  11.338   5.483   9.920 -1.2595 -2.0802  0.0317
    1ACE      C    5  11.497   5.566  10.039  0.4607  0.1507  0.1395
    1ACE      O    6  11.587   5.488  10.013 -0.4628 -0.2145 -0.7207
    2ALA      N    7  11.513   5.690  10.088  0.2138 -0.3017  0.1292
    2ALA      H    8  11.429   5.742  10.111  0.3465  0.2935 -0.6660
    2ALA     CA    9  11.634   5.750  10.148  0.0181 -0.0951 -0.5289
    2ALA     HA   10  11.621   5.850  10.189  1.4353 -0.2331  0.3594
    2ALA     CB   11  11.658   5.674  10.275 -0.0659 -0.2337  0.2988
    2ALA    HB1   12  11.696   5.575  10.250 -1.1454 -0.5143 -0.2903
    2ALA    HB2   13  11.734   5.723  10.336  0.5146 -1.5263  0.6535
    2ALA    HB3   14  11.572   5.666  10.340  0.6307  0.4740  1.3417
    2ALA      C   15  11.762   5.766  10.062 -0.1468  0.3906  0.1913
    2ALA      O   16  11.859   5.828  10.111  0.1992 -0.2375  0.3216
    3ALA      N   17  11.763   5.714   9.941  0.3567  0.7680  0.2172
    3ALA      H   18  11.679   5.661   9.922 -0.1900  2.1199 -1.3991
    3ALA     CA   19  11.841   5.753   9.823  0.1212 -0.2653  0.0596
    3ALA     HA   20  11.790   5.706   9.739 -0.8018 -0.6574  0.7989
    3ALA     CB   21  11.827   5.902   9.794 -0.2655  0.2913 -0.1244
    3ALA    HB1   22  11.881   5.928   9.703 -1.1794  2.6785 -0.0690
    3ALA    HB2   23  11.723   5.933   9.783 -0.5012 -0.4465  0.0097
    3ALA    HB3   24  11.872   5.968   9.868  0.4101 -0.1006 -0.1812
    3ALA      C   25  11.991   5.714   9.828  0.1128  0.4104 -0.2297
    3ALA      O   26  12.051   5.706   9.716  0.8878 -0.5838  0.0266
    4ALA      N   27  12.041   5.681   9.950 -0.5006 -0.2472 -0.1827
    4ALA      H   28  11.980   5.703  10.028 -0.8823  0.1658 -0.5998
    4ALA     CA   29  12.180   5.647   9.989 -0.8818  0.1781  1.1499
    4ALA     HA   30  12.195   5.540   9.999  1.0499  0.0853 -1.7767
    4ALA     CB   31  12.286   5.687   9.875  0.5905 -0.1013  0.1216
    4ALA    HB1   32  12.381   5.658   9.919 -1.2829 -1.8395  3.3585
    4ALA    HB2   33  12.266   5.615   9.795 -1.4024 -0.6494  1.0244
    4ALA    HB3   34  12.268   5.788   9.840 -0.7155 -0.4188 -0.2299
    4ALA      C   35  12.222   5.717  10.117 -0.1210  0.1031  0.1641
    4ALA      O   36  12.290   5.657  10.198  0.2106 -0.1093 -0.2684
    5NME      N   37  12.161   5.830  10.154  0.3119 -0.0848 -0.5709
    5NME      H   38  12.092   5.865  10.089 -0.0501  1.9903  0.8412
    5NME    CH3   39  12.162   5.889  10.291 -0.1219 -0.0731 -0.1213
    5NME   HH31   40  12.250   5.868  10.351  0.7934  0.3894 -1.2508
    5NME   HH32   41  12.149   5.997  10.281  1.0066 -0.0221 -1.2799
    5NME   HH33   42  12.075   5.848  10.344 -0.3444  1.2655  0.5831
  20.91516  20.91516  20.91516
