Protein
   42
    1ACE   HH31    1  13.291   9.368  13.798 -0.2776 -1.2302  0.5860
    1ACE    CH3    2  13.223   9.389  13.715 -0.3102 -0.7465  0.7295
    1ACE   HH32    3  13.118   9.379  13.743 -0.4978  2.8285  1.7839
    1ACE   HH33    4  13.248   9.321  13.634 -0.2012  0.5192 -0.3207
    1ACE      C    5  13.246   9.527  13.663 -0.2499 -0.4310  0.1862
    1ACE      O    6  13.150   9.585  13.607  0.1159 -0.4712 -0.0824
    2ALA      N    7  13.364   9.583  13.688  0.0828  0.0803 -0.3217
    2ALA      H    8  13.419   9.538  13.759  2.0801 -1.3011 -2.5942
    2ALA     CA    9  13.420   9.712  13.636 -0.1302  0.0623  0.1259
    2ALA     HA   10  13.511   9.736  13.690 -0.7311 -1.0518  1.6920
    2ALA     CB   11  13.467   9.688  13.492 -0.6698 -0.1108 -0.2840
    2ALA    HB1   12  13.529   9.774  13.466  1.5516 -1.6349 -0.2259
    2ALA    HB2   13  13.524   9.597  13.474 -0.1890  0.5983 -2.8205
    2ALA    HB3   14  13.379   9.682  13.429  0.0049 -1.7384 -1.1313
    2ALA      C   15  13.334   9.844  13.655  0.8422 -0.5368  0.0930
    2ALA      O   16  13.391   9.949  13.665  0.1031 -0.0857  0.1125
    3ALA      N   17  13.200   9.841  13.656  0.7870 -0.1488 -0.0957
    3ALA      H   18  13.157   9.752  13.632 -0.9514  0.7159 -0.3158
    3ALA     CA   19  13.092   9.937  13.688  0.1424 -0.5950  0.4396
    3ALA     HA   20  13.004   9.874  13.673  0.2421 -1.0384  1.6378
    3ALA     CB   21  13.097   9.992  13.825 -0.0054  0.5992 -0.2271
    3ALA    HB1   22  13.099   9.917  13.904 -2.0624 -0.7571 -1.3679
    3ALA    HB2   23  13.176  10.067  13.834  0.9795 -0.2123 -1.7598
    3ALA    HB3   24  13.000  10.038  13.845 -0.3193 -0.6418  1.2544
    3ALA      C   25  13.066  10.038  13.583 -0.6497 -0.1747  0.3311
    3ALA      O   26  12.970  10.029  13.506  0.0301 -0.2344  0.6067
    4ALA      N   27  13.171  10.111  13.555  0.0277 -0.1129  0.0542
    4ALA      H   28  13.250  10.106  13.617 -0.1158  1.0046  0.3770
    4ALA     CA   29  13.179  10.214  13.448 -0.3525 -0.0445  0.4225
    4ALA     HA   30  13.103  10.194  13.373  0.8345 -0.2545 -0.7681
    4ALA     CB   31  13.129  10.347  13.506 -0.4101 -0.1861  0.2050
    4ALA    HB1   32  13.205  10.388  13.571 -0.8152  0.5199  0.2480
    4ALA    HB2   33  13.100  10.412  13.423  0.8770  0.5060  0.2627
    4ALA    HB3   34  13.038  10.330  13.564 -1.3617  3.2597 -0.0411
    4ALA      C   35  13.318  10.226  13.377  0.8848 -0.3048  0.7831
    4ALA      O   36  13.357  10.334  13.333  0.1479 -0.3189  0.0402
    5NME      N   37  13.397  10.118  13.360 -0.1528  0.0811  0.4487
    5NME      H   38  13.368  10.038  13.414 -0.4137 -0.2891 -0.2285
    5NME    CH3   39  13.530  10.120  13.292  0.4819  0.4636 -0.2563
    5NME   HH31   40  13.615  10.085  13.350 -0.0869 -0.7279 -0.1022
    5NME   HH32   41  13.525  10.058  13.202  1.9774  0.8003 -0.5893
    5NME   HH33   42  13.549  10.215  13.242 -1.1375 -0.1665 -2.2379
  20.91516  20.91516  20.91516
