Protein
   42
    1ACE   HH31    1  10.347  14.334  10.274 -0.8570  0.8477  0.5141
    1ACE    CH3    2  10.262  14.282  10.318 -0.6307  0.2100  0.2110
    1ACE   HH32    3  10.246  14.276  10.426 -0.2844  0.2148  0.2674
    1ACE   HH33    4  10.257  14.179  10.284 -0.2078  0.7908 -1.7512
    1ACE      C    5  10.140  14.344  10.268  0.0665  0.2923 -1.0618
    1ACE      O    6  10.086  14.297  10.174 -0.0787 -0.0059 -0.1382
    2ALA      N    7  10.091  14.465  10.314 -0.1159 -0.7598 -0.2173
    2ALA      H    8  10.141  14.511  10.389 -0.8633 -1.3543  0.6713
    2ALA     CA    9   9.984  14.552  10.253 -0.0935 -0.0940 -0.3347
    2ALA     HA   10   9.901  14.498  10.208 -0.3397  0.5608 -0.6697
    2ALA     CB   11   9.924  14.644  10.357  0.5090  0.0943  0.3477
    2ALA    HB1   12   9.990  14.728  10.381  0.7615  0.1975 -0.6617
    2ALA    HB2   13   9.832  14.690  10.321 -0.4733 -1.7375  0.4035
    2ALA    HB3   14   9.893  14.592  10.447 -1.6328  2.4514  1.0983
    2ALA      C   15  10.034  14.629  10.124  0.1356 -0.0279 -0.9054
    2ALA      O   16   9.957  14.707  10.072 -0.7944  0.1109  0.0463
    3ALA      N   17  10.152  14.596  10.078  0.4493 -0.0478  0.0513
    3ALA      H   18  10.196  14.521  10.130  0.3061 -0.9300 -1.0379
    3ALA     CA   19  10.220  14.639   9.954 -0.3732 -0.3803  0.0404
    3ALA     HA   20  10.165  14.610   9.864 -0.1812 -3.6983  0.8428
    3ALA     CB   21  10.250  14.793   9.961  0.7133 -0.4223 -0.2749
    3ALA    HB1   22  10.158  14.846   9.983  0.3043 -0.2768 -2.1645
    3ALA    HB2   23  10.321  14.814  10.041  2.2878 -1.1659 -1.4193
    3ALA    HB3   24  10.304  14.832   9.876  1.5849 -0.9789  0.0151
    3ALA      C   25  10.351  14.566   9.941 -0.1461 -0.1021 -0.0723
    3ALA      O   26  10.402  14.516  10.037 -0.3495  0.6893  0.3973
    4ALA      N   27  10.412  14.572   9.823  0.2603  0.7005 -0.1705
    4ALA      H   28  10.365  14.627   9.754  1.9831  1.7528 -0.5661
    4ALA     CA   29  10.532  14.502   9.782 -0.1921  0.0937 -0.0219
    4ALA     HA   30  10.529  14.401   9.824  0.2126  0.9426  2.2957
    4ALA     CB   31  10.540  14.500   9.627 -0.2703 -0.0053 -0.6749
    4ALA    HB1   32  10.542  14.602   9.590 -0.4210  1.2989  2.4995
    4ALA    HB2   33  10.631  14.444   9.608  0.3242  0.3711  0.9152
    4ALA    HB3   34  10.451  14.446   9.593  0.2265 -0.4537 -1.2675
    4ALA      C   35  10.661  14.554   9.848 -1.3987 -0.0701 -0.8796
    4ALA      O   36  10.768  14.563   9.789  0.0729  0.3938  0.4346
    5NME      N   37  10.656  14.602   9.970 -0.5064 -0.5576 -0.4340
    5NME      H   38  10.568  14.604  10.019 -0.0300 -1.4445  0.4733
    5NME    CH3   39  10.770  14.649  10.044  0.1715 -0.3156  0.0739
    5NME   HH31   40  10.747  14.695  10.140  1.3474 -0.3809  0.4204
    5NME   HH32   41  10.827  14.559  10.071 -0.9266 -1.0317  0.0794
    5NME   HH33   42  10.833  14.711   9.981  1.4416  0.2349  1.7868
  20.91516  20.91516  20.91516
