Protein
   32
    1ACE   HH31    1   7.139   8.412   9.055 -0.6359 -0.1205  0.0323
    1ACE    CH3    2   7.155   8.411   8.947  0.2045  0.1465  0.1409
    1ACE   HH32    3   7.052   8.405   8.911 -0.1329  0.1058  1.0859
    1ACE   HH33    4   7.219   8.328   8.915 -2.1919 -2.1552  0.9662
    1ACE      C    5   7.210   8.544   8.899 -0.1018  0.0252  0.6685
    1ACE      O    6   7.269   8.622   8.977 -0.0139  0.4347  0.6674
    2ALA      N    7   7.183   8.577   8.772 -0.0183  0.1256 -0.8301
    2ALA      H    8   7.135   8.515   8.708  0.9261 -1.5339  0.0081
    2ALA     CA    9   7.230   8.704   8.716 -0.0009 -1.1967 -0.1375
    2ALA     HA   10   7.268   8.776   8.788  0.5306  2.4906 -3.7154
    2ALA     CB   11   7.341   8.679   8.613 -0.6672  0.1468  0.1196
    2ALA    HB1   12   7.308   8.607   8.538 -0.4829 -0.1752  0.3435
    2ALA    HB2   13   7.365   8.771   8.561 -2.1164  1.0315  0.9312
    2ALA    HB3   14   7.426   8.641   8.669 -0.8357 -0.0550  0.2440
    2ALA      C   15   7.108   8.777   8.656  1.0929 -0.8608 -0.3463
    2ALA      O   16   7.093   8.818   8.540  0.0975  0.2166 -0.6195
    3ALA      N   17   7.002   8.790   8.740  0.6544  0.5156  0.1952
    3ALA      H   18   7.012   8.783   8.840 -2.0718  0.1283  0.4979
    3ALA     CA   19   6.872   8.844   8.691  0.0863  0.0913  0.6156
    3ALA     HA   20   6.899   8.890   8.596  1.6198 -0.3272  0.8113
    3ALA     CB   21   6.779   8.723   8.663  0.1258 -0.0803  0.7094
    3ALA    HB1   22   6.764   8.663   8.753 -2.1207  0.2492  0.6071
    3ALA    HB2   23   6.682   8.759   8.630  0.3837 -0.6378 -0.7414
    3ALA    HB3   24   6.825   8.655   8.591  1.1462  0.8322  0.4816
    3ALA      C   25   6.809   8.955   8.777  0.0147  0.0379 -0.2099
    3ALA      O   26   6.884   9.027   8.839 -0.1797  0.1238 -0.6553
    4NME      N   27   6.677   8.976   8.789 -0.1763 -0.2244  0.4870
    4NME      H   28   6.626   8.903   8.741 -1.3326  1.4889 -1.0496
    4NME    CH3   29   6.609   9.087   8.868  0.5277  0.2224  0.1606
    4NME   HH31   30   6.679   9.168   8.886 -1.0754  1.3948  1.3991
    4NME   HH32   31   6.525   9.134   8.816  0.1346 -0.2376  0.3735
    4NME   HH33   32   6.579   9.047   8.965 -2.0770  1.1978 -0.1819
  20.99041  20.99041  20.99041
