Protein
   22
    1ACE   HH31    1   9.735   9.465   6.525  1.1589  0.2200  1.0899
    1ACE    CH3    2   9.758   9.359   6.539 -0.5056 -0.4698 -0.9840
    1ACE   HH32    3   9.718   9.302   6.455  0.3826 -0.7690 -1.2206
    1ACE   HH33    4   9.710   9.328   6.632  0.6986  1.6615  0.4327
    1ACE      C    5   9.906   9.327   6.547  0.4406 -0.1450  0.1337
    1ACE      O    6   9.965   9.252   6.473 -0.6418  0.6533  0.1420
    2ALA      N    7   9.961   9.404   6.638 -0.3402  0.0979 -0.1420
    2ALA      H    8   9.901   9.472   6.682 -1.5829 -0.9096 -0.2553
    2ALA     CA    9  10.106   9.417   6.668 -0.0554 -0.0146  0.4921
    2ALA     HA   10  10.137   9.484   6.589 -0.7261 -1.7672 -1.3434
    2ALA     CB   11  10.122   9.484   6.803  0.8383 -0.7541  0.5063
    2ALA    HB1   12  10.046   9.559   6.825 -0.0643 -1.5404  0.1044
    2ALA    HB2   13  10.111   9.406   6.879  3.0619 -1.5408  0.0924
    2ALA    HB3   14  10.213   9.544   6.807 -0.5100  1.6552 -1.8098
    2ALA      C   15  10.190   9.283   6.677  0.1136 -0.3922 -0.4377
    2ALA      O   16  10.313   9.285   6.658 -0.1295  0.2744  0.3055
    3NME      N   17  10.122   9.171   6.700  0.2894 -0.3463  0.1510
    3NME      H   18  10.025   9.190   6.722 -0.3225 -2.6404 -0.3485
    3NME    CH3   19  10.180   9.035   6.714 -0.0488 -0.3175  0.1331
    3NME   HH31   20  10.208   9.007   6.815 -1.8021 -0.4984  0.6130
    3NME   HH32   21  10.105   8.958   6.695 -0.9563  0.6484 -0.3013
    3NME   HH33   22  10.262   9.020   6.644  0.9377  2.2772  0.6458
  10.72160  10.72160  10.72160
