Protein
   42
    1ACE   HH31    1  13.880   0.648   7.056 -0.6414  0.7081  1.5136
    1ACE    CH3    2  13.945   0.570   7.095 -0.4624 -0.2524 -0.5394
    1ACE   HH32    3  13.991   0.507   7.018 -1.3442  1.2399 -2.3344
    1ACE   HH33    4  13.887   0.513   7.168 -1.1167  1.9428  0.7373
    1ACE      C    5  14.066   0.640   7.163  0.5072  0.1045 -0.1387
    1ACE      O    6  14.057   0.759   7.188 -0.6713  0.0354 -0.2541
    2ALA      N    7  14.175   0.566   7.191 -0.3118 -0.1578 -1.0106
    2ALA      H    8  14.170   0.477   7.143 -1.2025  0.1047 -1.4168
    2ALA     CA    9  14.293   0.624   7.245 -0.5088  0.1832  0.2689
    2ALA     HA   10  14.266   0.671   7.339  0.6683  0.5616  0.4463
    2ALA     CB   11  14.398   0.516   7.276 -0.2051  0.7746 -0.8049
    2ALA    HB1   12  14.421   0.455   7.188  0.9697 -1.2524  0.8258
    2ALA    HB2   13  14.492   0.569   7.294 -0.6446  1.4321 -0.4362
    2ALA    HB3   14  14.360   0.444   7.349 -0.1156  0.7027 -0.8242
    2ALA      C   15  14.357   0.732   7.162 -0.4985  0.2574 -0.3126
    2ALA      O   16  14.379   0.701   7.040 -0.3414 -0.1642 -0.2318
    3ALA      N   17  14.389   0.847   7.220  0.0936 -0.0556 -0.2540
    3ALA      H   18  14.362   0.861   7.316  1.2199 -0.3590  0.1225
    3ALA     CA   19  14.433   0.965   7.149  0.3476  0.3617 -0.3347
    3ALA     HA   20  14.436   1.043   7.225 -1.2253  1.8273 -1.6915
    3ALA     CB   21  14.578   0.947   7.100  0.4153 -0.1927  0.0769
    3ALA    HB1   22  14.604   0.858   7.043  0.8572  0.5579 -0.9359
    3ALA    HB2   23  14.596   1.033   7.036 -0.9811  0.6921  0.8099
    3ALA    HB3   24  14.637   0.953   7.191 -1.8618 -0.4999  1.6732
    3ALA      C   25  14.337   1.028   7.038  0.0083 -0.0814  0.1868
    3ALA      O   26  14.379   1.123   6.975 -0.2702 -0.8254  0.0536
    4ALA      N   27  14.217   0.964   7.018 -0.1609  0.5512  0.3906
    4ALA      H   28  14.188   0.882   7.069  0.4488 -0.5829 -1.0259
    4ALA     CA   29  14.122   1.022   6.921  0.5344  0.1678 -0.0763
    4ALA     HA   30  14.164   1.111   6.874  0.2973  0.2763 -0.0847
    4ALA     CB   31  14.105   0.919   6.806  0.2028 -0.3539 -0.0241
    4ALA    HB1   32  14.089   0.819   6.848  0.6003 -0.2456  0.4023
    4ALA    HB2   33  14.028   0.949   6.735  2.3162  2.4391 -1.3225
    4ALA    HB3   34  14.202   0.921   6.757 -0.6635 -1.2174 -1.8461
    4ALA      C   35  13.985   1.065   6.981 -0.5373  0.7813 -0.0980
    4ALA      O   36  13.935   1.168   6.945  0.2280  0.2970 -0.0642
    5NME      N   37  13.939   0.981   7.082  0.2856 -0.3770  0.6829
    5NME      H   38  13.997   0.904   7.114  1.9219  2.1107  4.4470
    5NME    CH3   39  13.835   1.027   7.174  0.3484 -0.2899 -0.5308
    5NME   HH31   40  13.881   1.047   7.271 -2.2719  0.3561  0.6778
    5NME   HH32   41  13.772   1.109   7.140 -1.7235 -2.0216 -1.0340
    5NME   HH33   42  13.762   0.948   7.190  1.2272 -0.6384  2.1524
  20.91516  20.91516  20.91516
