Protein
   60
    1ACE   HH31    1  19.820  21.573  18.560  1.1877 -1.4136  0.0713
    1ACE    CH3    2  19.782  21.574  18.662  0.5136 -0.5230 -0.1640
    1ACE   HH32    3  19.763  21.672  18.706  0.7613 -0.1598 -0.8668
    1ACE   HH33    4  19.688  21.520  18.661 -0.6801  1.3971  0.5070
    1ACE      C    5  19.877  21.504  18.755 -0.3220  0.5636  0.3482
    1ACE      O    6  19.942  21.407  18.710  1.3409 -0.0806 -0.0556
    2TRP      N    7  19.873  21.531  18.882  0.0437  0.6428  0.3869
    2TRP      H    8  19.920  21.467  18.945 -1.6781 -0.1713  0.8790
    2TRP     CA    9  19.814  21.639  18.956  0.1602 -0.1221  0.9001
    2TRP     HA   10  19.834  21.733  18.904  1.5720 -0.7739  0.1809
    2TRP     CB   11  19.660  21.616  18.962  0.1713  0.6576 -0.4361
    2TRP    HB1   12  19.625  21.514  18.972  0.1192  0.8049  1.1678
    2TRP    HB2   13  19.622  21.653  18.867 -0.0022 -0.6808 -0.9057
    2TRP     CG   14  19.594  21.695  19.061  0.9516  0.2113 -0.5008
    2TRP    CD1   15  19.507  21.793  19.032  0.6018  0.0466 -0.4279
    2TRP    HD1   16  19.480  21.828  18.934  0.3081 -0.8129 -0.6656
    2TRP    NE1   17  19.451  21.845  19.148  0.4427  0.3092 -0.7493
    2TRP    HE1   18  19.393  21.927  19.157 -1.4787 -0.4558 -4.3533
    2TRP    CE2   19  19.497  21.780  19.256 -0.1161  0.0430  0.0034
    2TRP    CZ2   20  19.477  21.804  19.390 -0.4532  0.0553 -0.9565
    2TRP    HZ2   21  19.420  21.890  19.422  0.6385  0.2037  0.7175
    2TRP    CH2   22  19.537  21.726  19.487 -0.1137  0.8820  0.0469
    2TRP    HH2   23  19.527  21.750  19.592  0.5798  1.6354 -0.0576
    2TRP    CZ3   24  19.621  21.617  19.443  0.2691  0.5580 -0.1429
    2TRP    HZ3   25  19.665  21.547  19.512 -0.0932  1.0710  0.6174
    2TRP    CE3   26  19.641  21.595  19.307 -0.1904  0.4414 -0.4492
    2TRP    HE3   27  19.700  21.514  19.267 -0.9743 -0.1813 -0.3449
    2TRP    CD2   28  19.585  21.682  19.210 -0.7184  0.6856  0.2114
    2TRP      C   29  19.878  21.636  19.095  0.5951 -0.7119 -0.2158
    2TRP      O   30  19.920  21.531  19.142  1.3227  0.1468 -0.4043
    3TRP      N   31  19.890  21.752  19.167 -0.3588  0.4313  0.0034
    3TRP      H   32  19.955  21.739  19.244  0.9523  0.7699 -1.0234
    3TRP     CA   33  19.848  21.893  19.135 -0.5224 -0.7332  1.1618
    3TRP     HA   34  19.773  21.890  19.056  0.2281 -4.4815  0.3796
    3TRP     CB   35  19.966  21.974  19.081  0.1721 -0.0835 -0.7335
    3TRP    HB1   36  19.929  22.074  19.058  2.1131  0.5405 -1.4337
    3TRP    HB2   37  20.044  21.987  19.156  1.0067  0.0937 -1.6051
    3TRP     CG   38  20.029  21.914  18.954  1.4414 -0.6926 -0.3637
    3TRP    CD1   39  20.108  21.810  18.956 -0.4069  0.4486  0.1615
    3TRP    HD1   40  20.155  21.764  19.042 -0.8395 -0.9332 -0.2988
    3TRP    NE1   41  20.123  21.765  18.828  0.1117  0.4252 -0.3039
    3TRP    HE1   42  20.176  21.682  18.804 -3.1267 -1.8120 -0.3530
    3TRP    CE2   43  20.040  21.834  18.743  0.7173  0.4472  0.2312
    3TRP    CZ2   44  20.004  21.810  18.609  0.1777 -0.3010  0.1145
    3TRP    HZ2   45  20.048  21.731  18.550 -0.7483 -0.7419 -0.0061
    3TRP    CH2   46  19.913  21.894  18.549 -0.3496 -0.0411  0.4642
    3TRP    HH2   47  19.884  21.873  18.447  0.2308 -2.5223  0.7489
    3TRP    CZ3   48  19.845  21.992  18.625  0.2737 -0.8177  1.0545
    3TRP    HZ3   49  19.766  22.052  18.583  1.2681 -0.5007 -0.4852
    3TRP    CE3   50  19.881  22.016  18.757 -0.2508 -0.8298 -0.4139
    3TRP    HE3   51  19.828  22.092  18.813 -1.4772 -1.4601 -0.6702
    3TRP    CD2   52  19.979  21.935  18.821  0.3527  1.0661  0.3436
    3TRP      C   53  19.784  21.970  19.251  0.1398  0.3098 -0.5070
    3TRP      O   54  19.716  22.066  19.225 -0.2272 -0.2543  0.0972
    4NME      N   55  19.807  21.928  19.376 -0.3450  0.0828 -0.5348
    4NME      H   56  19.852  21.837  19.382  0.1850  0.4221  1.3455
    4NME    CH3   57  19.768  21.995  19.494 -0.2331 -0.4938 -0.1577
    4NME   HH31   58  19.769  21.929  19.581 -2.4132  1.5930  1.5782
    4NME   HH32   59  19.827  22.086  19.505 -1.0624 -0.0042  0.3746
    4NME   HH33   60  19.665  22.028  19.479  0.0558  1.0367  0.9510
  41.12396  41.12396  41.12396
