Protein
   42
    1ACE   HH31    1  13.102  13.819  11.153  2.3550  0.4009 -0.5161
    1ACE    CH3    2  13.127  13.725  11.203 -0.5689  0.1243  0.6482
    1ACE   HH32    3  13.143  13.646  11.130 -0.3397  0.7048  0.0582
    1ACE   HH33    4  13.050  13.696  11.275  0.3081  0.4341  1.7452
    1ACE      C    5  13.251  13.742  11.271 -0.2873 -0.3015 -0.2796
    1ACE      O    6  13.352  13.678  11.237 -0.2076  0.7219 -0.2723
    2ALA      N    7  13.247  13.833  11.368  0.1466 -0.5791 -0.2670
    2ALA      H    8  13.156  13.875  11.378  1.7959  3.2126  0.6633
    2ALA     CA    9  13.351  13.889  11.457 -0.4969 -0.0067 -0.0276
    2ALA     HA   10  13.290  13.888  11.547 -1.9976  1.7769 -0.9557
    2ALA     CB   11  13.479  13.812  11.477  0.1509  0.2932 -1.0502
    2ALA    HB1   12  13.456  13.706  11.477 -1.4744  0.5898  0.6810
    2ALA    HB2   13  13.536  13.818  11.384 -0.6395  0.1189 -1.5634
    2ALA    HB3   14  13.530  13.845  11.568 -3.2216  1.8982  0.4135
    2ALA      C   15  13.367  14.042  11.420  0.6829 -0.4278 -0.3229
    2ALA      O   16  13.372  14.077  11.304  0.3361 -0.6405 -0.4265
    3ALA      N   17  13.377  14.141  11.514  0.3939  0.2577  0.4007
    3ALA      H   18  13.372  14.233  11.473 -2.0038  0.3333  0.6741
    3ALA     CA   19  13.364  14.122  11.660 -0.6541  0.5940 -0.5213
    3ALA     HA   20  13.411  14.027  11.686 -1.0699  0.4872 -0.1574
    3ALA     CB   21  13.447  14.236  11.725  1.1078  0.0213  0.1963
    3ALA    HB1   22  13.532  14.246  11.658  1.0993  1.2097  0.3454
    3ALA    HB2   23  13.392  14.330  11.716  0.4611 -0.5252 -2.1495
    3ALA    HB3   24  13.477  14.197  11.823 -0.4485  1.0202  1.1279
    3ALA      C   25  13.212  14.115  11.704  0.0252  0.1982 -0.2527
    3ALA      O   26  13.178  14.054  11.815 -0.0073  0.0995  0.9412
    4ALA      N   27  13.120  14.167  11.618  0.3787 -0.6217 -0.3049
    4ALA      H   28  13.156  14.222  11.542  0.0373 -1.0832 -0.8139
    4ALA     CA   29  12.977  14.130  11.611  0.2685 -0.1689 -0.1610
    4ALA     HA   30  12.945  14.124  11.715  0.6628 -0.3947 -0.0480
    4ALA     CB   31  12.896  14.237  11.540 -0.0145 -0.5975  0.0710
    4ALA    HB1   32  12.924  14.255  11.436 -1.2971 -0.0504 -0.1903
    4ALA    HB2   33  12.789  14.224  11.555 -0.5192  0.4054 -2.1894
    4ALA    HB3   34  12.919  14.335  11.582 -0.8187  0.0351 -0.9324
    4ALA      C   35  12.957  13.988  11.545  0.0677  0.9614 -0.2968
    4ALA      O   36  13.005  13.954  11.437  0.2297  0.1509 -0.4976
    5NME      N   37  12.887  13.891  11.616  0.1875  0.3551  0.4603
    5NME      H   38  12.839  13.918  11.701 -0.4517 -0.8203  0.4954
    5NME    CH3   39  12.864  13.751  11.578  0.3003 -0.2138  0.2500
    5NME   HH31   40  12.851  13.738  11.470  0.0712 -2.4093  0.4898
    5NME   HH32   41  12.945  13.682  11.602  0.7535 -0.8168 -2.6753
    5NME   HH33   42  12.768  13.720  11.621 -0.5216 -2.0243 -2.5837
  20.91516  20.91516  20.91516
