Protein
   32
    1ACE   HH31    1   8.439   5.886  13.494  0.0067 -1.3230  1.2144
    1ACE    CH3    2   8.532   5.857  13.445 -0.2805 -0.0026 -0.1910
    1ACE   HH32    3   8.523   5.894  13.342 -0.9587 -0.9759 -0.4961
    1ACE   HH33    4   8.544   5.749  13.450  1.5938  0.2004  0.3246
    1ACE      C    5   8.640   5.928  13.526 -0.2397 -0.2191 -0.0943
    1ACE      O    6   8.672   5.888  13.633 -0.2024  0.8444  0.0357
    2ALA      N    7   8.705   6.027  13.455 -0.3476  0.7846 -0.2253
    2ALA      H    8   8.668   6.052  13.365 -1.6571  0.7267  0.2740
    2ALA     CA    9   8.810   6.115  13.503 -0.1513  0.3507 -0.2173
    2ALA     HA   10   8.849   6.064  13.591  1.6816 -0.7157 -1.5916
    2ALA     CB   11   8.921   6.125  13.394  0.3271 -0.0244  0.5446
    2ALA    HB1   12   8.952   6.032  13.347 -1.1356  0.4855 -1.5505
    2ALA    HB2   13   8.888   6.195  13.317  1.8640  0.6358  0.4441
    2ALA    HB3   14   9.011   6.165  13.440  1.3708 -0.4785 -1.0029
    2ALA      C   15   8.756   6.247  13.564  0.4567  0.3067 -0.1285
    2ALA      O   16   8.653   6.243  13.627  0.1757 -0.6540 -0.5227
    3ALA      N   17   8.824   6.360  13.546  0.8801 -0.0039 -0.2660
    3ALA      H   18   8.916   6.364  13.506  1.4412 -2.8718  0.5444
    3ALA     CA   19   8.754   6.490  13.576  0.3674 -0.4246  0.3676
    3ALA     HA   20   8.646   6.484  13.566  0.3974  0.6554 -1.0431
    3ALA     CB   21   8.777   6.529  13.724 -0.0972 -0.1358  0.0134
    3ALA    HB1   22   8.881   6.506  13.748  0.0324 -1.2758 -1.4676
    3ALA    HB2   23   8.758   6.635  13.742  1.7239  0.7147 -2.4529
    3ALA    HB3   24   8.718   6.462  13.785 -2.0237  0.5909 -0.9230
    3ALA      C   25   8.780   6.609  13.483 -0.2474 -0.0253  0.1399
    3ALA      O   26   8.896   6.633  13.446  0.1056  0.2294 -0.1370
    4NME      N   27   8.678   6.694  13.450  0.1466  0.5802 -0.7036
    4NME      H   28   8.583   6.675  13.479  0.1446  1.0956 -0.3556
    4NME    CH3   29   8.682   6.821  13.373 -0.0380  0.2484  0.2460
    4NME   HH31   30   8.729   6.806  13.276 -1.6462 -0.2313 -0.5021
    4NME   HH32   31   8.581   6.860  13.355  0.5041  0.9321 -1.5359
    4NME   HH33   32   8.732   6.899  13.430  0.3386  0.9869 -1.0605
  20.99041  20.99041  20.99041
