Protein
   32
    1ACE   HH31    1  10.317  10.551  10.041  0.7302  1.2051 -0.0098
    1ACE    CH3    2  10.355  10.560   9.939  0.2683  0.0819 -0.2855
    1ACE   HH32    3  10.285  10.627   9.890 -2.6188 -1.3306  1.5884
    1ACE   HH33    4  10.360  10.456   9.907 -1.5909  0.3280 -1.5347
    1ACE      C    5  10.494  10.613   9.941  0.6756  0.4352 -0.0712
    1ACE      O    6  10.579  10.566   9.869 -0.0165  0.3148  0.1567
    2ALA      N    7  10.516  10.717  10.025  0.1271  0.2016  0.0723
    2ALA      H    8  10.452  10.734  10.102  1.1340  0.4219  0.8951
    2ALA     CA    9  10.640  10.791  10.042  0.5043  0.8059  0.0709
    2ALA     HA   10  10.676  10.823   9.944  0.1536 -0.6663 -0.5676
    2ALA     CB   11  10.603  10.917  10.119 -0.4577 -0.4437  0.0987
    2ALA    HB1   12  10.692  10.967  10.157 -0.7998 -1.6980  2.7402
    2ALA    HB2   13  10.543  10.988  10.062 -0.8661 -0.1688  0.8452
    2ALA    HB3   14  10.547  10.887  10.208 -1.9797 -0.0741 -0.6833
    2ALA      C   15  10.735  10.706  10.110 -0.2662  0.8351 -0.3069
    2ALA      O   16  10.733  10.696  10.232 -0.0867 -0.4298 -0.3732
    3ALA      N   17  10.826  10.633  10.033  0.1017 -0.3288 -0.7667
    3ALA      H   18  10.820  10.633   9.932 -1.7016 -0.0894 -0.6960
    3ALA     CA   19  10.943  10.574  10.093 -0.5159  0.8084  0.2942
    3ALA     HA   20  10.921  10.560  10.199 -0.7016 -1.8260 -0.0121
    3ALA     CB   21  10.958  10.427  10.037 -0.3411  0.1454 -0.6924
    3ALA    HB1   22  10.881  10.355  10.064 -0.4354 -0.6685 -2.9026
    3ALA    HB2   23  10.951  10.436   9.928  4.1412 -0.9885 -1.2814
    3ALA    HB3   24  11.055  10.385  10.062 -1.0912 -2.4902 -1.8180
    3ALA      C   25  11.072  10.655  10.079  0.2125  0.3323  0.2608
    3ALA      O   26  11.102  10.738  10.167  0.1001  0.2925 -0.2838
    4NME      N   27  11.148  10.641   9.968  0.0647  0.6796 -1.0918
    4NME      H   28  11.106  10.585   9.894 -0.6286  0.6885 -0.7157
    4NME    CH3   29  11.274  10.713   9.956 -0.8096 -0.3095  0.3627
    4NME   HH31   30  11.362  10.654   9.982 -0.2496  0.1927 -0.3593
    4NME   HH32   31  11.282  10.746   9.852 -1.1716 -2.6995 -0.4919
    4NME   HH33   32  11.285  10.802  10.018  1.4036 -1.1116  1.2157
  20.99041  20.99041  20.99041
