Protein
   32
    1ACE   HH31    1  10.210  13.335   9.572 -0.4256 -2.1361 -0.6356
    1ACE    CH3    2  10.229  13.378   9.474  0.5217 -0.2695  0.3230
    1ACE   HH32    3  10.227  13.287   9.413 -0.1434  0.7099 -1.1733
    1ACE   HH33    4  10.329  13.422   9.474  1.3719 -2.0645  1.5513
    1ACE      C    5  10.117  13.470   9.420  0.0877  0.1244 -0.6269
    1ACE      O    6  10.144  13.563   9.347 -0.1488 -0.0238 -0.0408
    2ALA      N    7  10.002  13.456   9.482  0.2576  0.1281  0.7168
    2ALA      H    8   9.983  13.388   9.555 -0.6484 -2.1952 -1.5361
    2ALA     CA    9   9.886  13.535   9.449  0.2072  0.4113 -0.5392
    2ALA     HA   10   9.922  13.628   9.404 -0.3346  0.5271 -0.7487
    2ALA     CB   11   9.816  13.455   9.333  0.0836 -0.1892  0.1956
    2ALA    HB1   12   9.800  13.348   9.348  1.0097 -0.1278  2.0489
    2ALA    HB2   13   9.729  13.516   9.313  0.1225  0.1750  1.0555
    2ALA    HB3   14   9.885  13.458   9.249  1.9824 -2.9981  1.4810
    2ALA      C   15   9.795  13.556   9.570 -0.0439 -0.6340  0.1574
    2ALA      O   16   9.691  13.499   9.596 -0.2017  0.2594 -0.3607
    3ALA      N   17   9.847  13.640   9.660 -0.0062  0.0099 -0.7342
    3ALA      H   18   9.938  13.678   9.641  0.7915 -1.7259 -0.5242
    3ALA     CA   19   9.766  13.705   9.768 -0.3538  1.1484  0.1664
    3ALA     HA   20   9.704  13.640   9.830  0.0519 -0.8334 -1.4008
    3ALA     CB   21   9.865  13.768   9.864  0.1484  0.6966  0.6822
    3ALA    HB1   22   9.808  13.827   9.937  0.8060  2.5786 -0.2590
    3ALA    HB2   23   9.936  13.692   9.896  0.5484  1.2740  1.2136
    3ALA    HB3   24   9.919  13.840   9.803 -1.3967 -0.0732 -1.6881
    3ALA      C   25   9.674  13.806   9.699 -0.2742  0.4978 -0.2811
    3ALA      O   26   9.702  13.923   9.717  0.7207 -0.1193  0.1351
    4NME      N   27   9.568  13.767   9.633 -0.2604 -0.4057 -0.0982
    4NME      H   28   9.553  13.672   9.602  1.2471 -0.3509 -1.0799
    4NME    CH3   29   9.475  13.850   9.563  0.4484  0.1593  0.4044
    4NME   HH31   30   9.525  13.901   9.481 -2.8835 -1.8629 -3.2428
    4NME   HH32   31   9.389  13.793   9.529  0.0527  2.4442 -2.8827
    4NME   HH33   32   9.429  13.927   9.624 -1.0017 -0.1805 -0.2111
  20.99041  20.99041  20.99041
