Protein
   22
    1ACE   HH31    1   6.364   6.463   5.144 -0.4424  0.4138 -0.1197
    1ACE    CH3    2   6.431   6.521   5.080  0.0620  0.0035  0.0400
    1ACE   HH32    3   6.434   6.622   5.121  0.4753 -0.9020  2.4306
    1ACE   HH33    4   6.377   6.509   4.987 -2.2751  0.4174  1.2755
    1ACE      C    5   6.574   6.459   5.071 -0.2833 -0.0697 -0.0663
    1ACE      O    6   6.616   6.434   4.956  0.3266 -0.3879  0.4594
    2ALA      N    7   6.640   6.433   5.181  0.1262 -0.1455 -0.1320
    2ALA      H    8   6.596   6.472   5.263  0.0294  1.2806 -0.8397
    2ALA     CA    9   6.787   6.418   5.188  0.7857 -0.2353  0.3245
    2ALA     HA   10   6.820   6.487   5.266 -0.7768  0.6224  0.2820
    2ALA     CB   11   6.810   6.275   5.242  0.7407  0.4484 -0.2424
    2ALA    HB1   12   6.916   6.247   5.237  1.2862  1.7571  2.4407
    2ALA    HB2   13   6.795   6.271   5.350 -1.1309  1.4693 -0.4300
    2ALA    HB3   14   6.739   6.202   5.203  0.5136 -0.1731  1.2346
    2ALA      C   15   6.868   6.451   5.063  0.3329 -0.1956  0.9863
    2ALA      O   16   6.899   6.573   5.046  0.1771  0.3317 -0.0448
    3NME      N   17   6.908   6.354   4.981 -0.2837 -0.4314  0.6355
    3NME      H   18   6.859   6.265   4.986 -1.2654  0.0045 -0.5529
    3NME    CH3   19   6.981   6.378   4.862 -0.3878  0.0295 -0.1970
    3NME   HH31   20   7.047   6.464   4.867 -1.7925  1.0806  1.0152
    3NME   HH32   21   7.049   6.295   4.843 -0.0709 -0.0887  1.3140
    3NME   HH33   22   6.918   6.385   4.773 -0.9269 -2.2601 -0.0638
  10.72160  10.72160  10.72160
