Protein
   32
    1ACE   HH31    1  10.602  12.948   9.078  2.7352 -0.5248 -2.5357
    1ACE    CH3    2  10.601  13.057   9.075  0.4552 -0.3659 -0.1022
    1ACE   HH32    3  10.564  13.099   8.981  4.1477  4.7097  0.3238
    1ACE   HH33    4  10.705  13.088   9.086  0.1656  0.4218  0.5750
    1ACE      C    5  10.517  13.108   9.188  0.6105 -0.2709  0.1708
    1ACE      O    6  10.449  13.211   9.175  0.4402  0.7607  0.7490
    2ALA      N    7  10.549  13.054   9.311  0.4104 -0.3925  0.4538
    2ALA      H    8  10.593  12.965   9.293  1.6341  0.4035 -0.6042
    2ALA     CA    9  10.504  13.076   9.451 -0.0740  0.3585  0.2455
    2ALA     HA   10  10.570  13.147   9.502  0.7469  0.0700 -0.3819
    2ALA     CB   11  10.374  13.145   9.459  0.6970 -0.3965 -0.5090
    2ALA    HB1   12  10.380  13.246   9.419  0.3705 -0.0433  0.3108
    2ALA    HB2   13  10.299  13.083   9.410  0.6559 -0.7234 -0.0453
    2ALA    HB3   14  10.341  13.143   9.563 -0.5584  0.2977 -0.8802
    2ALA      C   15  10.508  12.948   9.532 -0.1578  0.7130  0.8350
    2ALA      O   16  10.491  12.838   9.485 -0.2992 -0.1805  0.7686
    3ALA      N   17  10.562  12.963   9.648 -0.5834  0.2353  0.4151
    3ALA      H   18  10.580  13.055   9.686  1.7156  0.3641 -0.8289
    3ALA     CA   19  10.571  12.853   9.741 -0.3745  0.0489 -0.5943
    3ALA     HA   20  10.606  12.760   9.696 -0.8142  0.3057 -1.4817
    3ALA     CB   21  10.664  12.890   9.855  0.0908  0.5697 -0.8387
    3ALA    HB1   22  10.625  12.979   9.904 -0.8218 -0.9511  1.3779
    3ALA    HB2   23  10.678  12.805   9.921 -0.3023  3.0545  2.7213
    3ALA    HB3   24  10.769  12.891   9.825  0.6998 -0.0425  1.0986
    3ALA      C   25  10.437  12.824   9.805  0.7824  0.0966 -0.7671
    3ALA      O   26  10.406  12.852   9.925  0.3910 -0.4644  0.2641
    4NME      N   27  10.355  12.751   9.731  0.3060 -0.0929 -0.1375
    4NME      H   28  10.388  12.724   9.639  1.2096 -3.0665  0.9824
    4NME    CH3   29  10.210  12.729   9.755  0.4009  0.1824  0.5620
    4NME   HH31   30  10.183  12.627   9.726  0.2291  0.5485 -0.6768
    4NME   HH32   31  10.190  12.740   9.862  0.9740 -0.3554  0.7340
    4NME   HH33   32  10.144  12.802   9.709 -0.0641  0.6656  1.9409
  20.99041  20.99041  20.99041
