Protein
   32
    1ACE   HH31    1   5.803  11.729   9.830 -1.1962 -0.1106 -1.6839
    1ACE    CH3    2   5.712  11.708   9.885  0.1753 -0.2680  0.6849
    1ACE   HH32    3   5.644  11.792   9.865 -1.1555 -1.4491  0.0403
    1ACE   HH33    4   5.730  11.699   9.992  3.0866  2.2531  0.5442
    1ACE      C    5   5.652  11.578   9.844 -0.1756 -0.3944 -0.0192
    1ACE      O    6   5.699  11.510   9.758  0.5519  0.5574 -0.3365
    2ALA      N    7   5.543  11.543   9.903  0.9835  0.6507 -0.2585
    2ALA      H    8   5.518  11.597   9.984 -1.9430  0.4307 -0.9121
    2ALA     CA    9   5.486  11.411   9.902  0.2553 -0.0123 -0.4364
    2ALA     HA   10   5.561  11.345   9.857  2.5496  1.1945  1.3663
    2ALA     CB   11   5.463  11.357  10.041  0.5152  0.0092  0.0089
    2ALA    HB1   12   5.553  11.348  10.101  0.0577  3.1054  1.3151
    2ALA    HB2   13   5.400  11.431  10.090  1.9017  0.2020  1.5476
    2ALA    HB3   14   5.414  11.260  10.032  2.9977 -1.3689  0.4224
    2ALA      C   15   5.355  11.382   9.821 -0.2141 -0.7700  0.5437
    2ALA      O   16   5.286  11.281   9.825  0.1921  0.0971 -0.4629
    3ALA      N   17   5.314  11.491   9.760  0.6681 -0.1213  0.0508
    3ALA      H   18   5.376  11.571   9.753  2.8821 -1.8499 -2.8790
    3ALA     CA   19   5.205  11.492   9.664 -1.2344  0.3002  0.5329
    3ALA     HA   20   5.119  11.451   9.716 -1.0154 -3.3536 -1.5980
    3ALA     CB   21   5.182  11.632   9.625 -0.0790  0.0704  0.2991
    3ALA    HB1   22   5.091  11.632   9.564  0.5196  0.9774 -0.6507
    3ALA    HB2   23   5.173  11.696   9.713  5.2112  0.9218  0.5579
    3ALA    HB3   24   5.267  11.664   9.564  1.6309 -1.8773  1.5510
    3ALA      C   25   5.236  11.406   9.532  0.6706 -0.2096  0.1974
    3ALA      O   26   5.338  11.424   9.463  0.6653  0.3387  0.2750
    4NME      N   27   5.134  11.332   9.484 -0.5645  0.0664 -0.1574
    4NME      H   28   5.051  11.335   9.541 -0.0555 -2.7303  0.8637
    4NME    CH3   29   5.123  11.263   9.354  0.1996 -0.3929  0.2582
    4NME   HH31   30   5.210  11.285   9.292 -1.4307  1.5855 -1.4679
    4NME   HH32   31   5.126  11.157   9.381  0.3694  0.3024  3.3720
    4NME   HH33   32   5.040  11.290   9.289  0.6951  0.5489  0.0059
  20.99041  20.99041  20.99041
