Protein
   42
    1ACE   HH31    1  16.170   6.427   5.268  0.3071  0.1475  1.0870
    1ACE    CH3    2  16.181   6.516   5.206 -0.2089 -0.2286  0.4324
    1ACE   HH32    3  16.099   6.587   5.201  0.9032  1.0887  0.1742
    1ACE   HH33    4  16.189   6.480   5.104 -1.8779  0.4178  0.0405
    1ACE      C    5  16.306   6.598   5.252 -0.7113 -0.2067 -0.1352
    1ACE      O    6  16.335   6.623   5.370  0.4576  0.2973  0.0404
    2ALA      N    7  16.377   6.661   5.156 -0.5182  0.6945  0.6911
    2ALA      H    8  16.351   6.641   5.060 -1.1299 -1.7990  1.3229
    2ALA     CA    9  16.476   6.773   5.172 -0.7650  0.3697 -0.5689
    2ALA     HA   10  16.508   6.796   5.070 -2.8976  2.1292 -0.9117
    2ALA     CB   11  16.409   6.905   5.220 -0.6338  0.0339  0.4195
    2ALA    HB1   12  16.335   6.943   5.149 -1.2891 -0.2931  0.9139
    2ALA    HB2   13  16.364   6.905   5.319  0.1998  1.7134  0.8507
    2ALA    HB3   14  16.486   6.982   5.231  0.0517 -0.8067  1.6532
    2ALA      C   15  16.609   6.727   5.246  0.4429  0.6154  0.3605
    2ALA      O   16  16.696   6.811   5.266  0.4865  0.0077  0.8394
    3ALA      N   17  16.615   6.605   5.299  0.0428  0.0210 -0.2557
    3ALA      H   18  16.530   6.551   5.312 -0.1880  0.6458  1.0324
    3ALA     CA   19  16.727   6.534   5.354 -0.8168  0.3575  0.7450
    3ALA     HA   20  16.682   6.448   5.403 -3.9749  0.4494 -1.6812
    3ALA     CB   21  16.799   6.477   5.236 -0.1328 -0.0397  0.1392
    3ALA    HB1   22  16.873   6.407   5.277  1.1740  2.0917  1.5967
    3ALA    HB2   23  16.729   6.424   5.172  0.1184 -0.2489  0.0371
    3ALA    HB3   24  16.841   6.556   5.173 -1.5013  2.4242  2.1685
    3ALA      C   25  16.829   6.600   5.456  0.1486  0.1604 -0.1801
    3ALA      O   26  16.915   6.527   5.514  0.3462  0.1759  0.0746
    4ALA      N   27  16.822   6.729   5.485 -0.3405 -0.5822 -0.0700
    4ALA      H   28  16.755   6.785   5.434 -0.9821 -0.9050  0.4117
    4ALA     CA   29  16.933   6.805   5.548 -0.1836  0.2572 -0.0144
    4ALA     HA   30  16.955   6.734   5.628  0.0685  1.1074  0.6901
    4ALA     CB   31  17.056   6.810   5.452 -0.2006  0.1926 -0.3921
    4ALA    HB1   32  17.038   6.894   5.384 -1.1915  0.0669 -0.2927
    4ALA    HB2   33  17.145   6.830   5.512 -2.3748  1.3254  2.7078
    4ALA    HB3   34  17.064   6.712   5.405  0.3579  0.2324 -0.4013
    4ALA      C   35  16.911   6.952   5.605  0.5706  0.3825  0.2171
    4ALA      O   36  17.013   7.019   5.628  0.9184 -0.2864  0.5875
    5NME      N   37  16.785   7.002   5.624  0.2337  0.2504  0.2599
    5NME      H   38  16.707   6.944   5.597  0.8244 -1.3142  1.7562
    5NME    CH3   39  16.762   7.142   5.670 -0.3244  0.6692 -0.3996
    5NME   HH31   40  16.819   7.209   5.605 -1.2719  1.1752 -0.7230
    5NME   HH32   41  16.656   7.163   5.662 -0.2831  0.7717 -0.6627
    5NME   HH33   42  16.790   7.144   5.775 -0.7702 -0.8705 -0.2276
  20.91516  20.91516  20.91516
