Protein
   42
    1ACE   HH31    1  20.566  10.152   8.766 -2.6052 -1.2994 -2.1735
    1ACE    CH3    2  20.493  10.157   8.847 -0.1704 -1.0010  0.1440
    1ACE   HH32    3  20.412  10.217   8.807  1.0393  0.7781  0.2350
    1ACE   HH33    4  20.531  10.206   8.937 -0.6171  1.7219 -1.0597
    1ACE      C    5  20.448  10.012   8.873 -0.2758 -0.5854  1.0358
    1ACE      O    6  20.524   9.934   8.928 -0.0870  0.2540 -0.3026
    2ALA      N    7  20.324   9.981   8.831 -1.2182  0.1548 -0.3456
    2ALA      H    8  20.268  10.046   8.777 -0.8954  0.8111  0.0989
    2ALA     CA    9  20.268   9.841   8.846  0.4119  0.1028 -0.1045
    2ALA     HA   10  20.355   9.776   8.838 -0.0740 -0.5230 -0.4205
    2ALA     CB   11  20.207   9.836   8.988  0.0959 -0.3710 -0.6989
    2ALA    HB1   12  20.270   9.874   9.068 -2.7316 -0.7661  1.8726
    2ALA    HB2   13  20.117   9.897   8.991  0.4157  0.0894 -0.3525
    2ALA    HB3   14  20.179   9.733   9.009  0.3393 -0.5190 -1.0920
    2ALA      C   15  20.172   9.820   8.730 -0.4870 -0.3018 -0.9198
    2ALA      O   16  20.115   9.923   8.688 -0.0575  0.2515 -0.0931
    3ALA      N   17  20.137   9.696   8.685  0.0895 -0.0836 -0.6502
    3ALA      H   18  20.062   9.685   8.619  0.3657  1.1801 -1.2287
    3ALA     CA   19  20.213   9.574   8.720 -0.0295 -0.0303  0.3321
    3ALA     HA   20  20.218   9.564   8.828 -1.6825  0.4626  0.4896
    3ALA     CB   21  20.132   9.457   8.658 -0.1594  0.0011  0.2865
    3ALA    HB1   22  20.195   9.370   8.640 -1.0117 -0.4671 -0.5549
    3ALA    HB2   23  20.052   9.437   8.730  0.1405 -1.8428  0.1599
    3ALA    HB3   24  20.094   9.488   8.561  1.1098 -0.2525 -0.3066
    3ALA      C   25  20.358   9.564   8.667  0.4324 -0.5770 -0.4515
    3ALA      O   26  20.426   9.463   8.700 -0.3393  0.2717  0.2672
    4ALA      N   27  20.396   9.666   8.595 -0.4774 -0.4165 -0.0183
    4ALA      H   28  20.338   9.747   8.581  1.8784  1.1321 -1.4668
    4ALA     CA   29  20.538   9.677   8.552  0.1503 -0.3797 -0.6542
    4ALA     HA   30  20.600   9.622   8.623 -3.2526 -2.5965  0.8429
    4ALA     CB   31  20.554   9.615   8.414 -0.8583  0.4704  0.8181
    4ALA    HB1   32  20.470   9.636   8.347 -0.4658 -1.7588 -0.5260
    4ALA    HB2   33  20.649   9.655   8.381  0.0294 -1.5719  0.7334
    4ALA    HB3   34  20.562   9.507   8.429 -1.0556  0.3001 -0.1815
    4ALA      C   35  20.591   9.822   8.562  0.0147 -0.1067 -0.1521
    4ALA      O   36  20.510   9.910   8.554 -0.5507 -0.2003  0.1237
    5NME      N   37  20.724   9.837   8.576  0.2358 -0.9294 -0.1778
    5NME      H   38  20.783   9.756   8.582 -0.2658 -1.3922 -1.1008
    5NME    CH3   39  20.787   9.966   8.574  0.3832 -0.1257 -0.3152
    5NME   HH31   40  20.788  10.017   8.670  0.6826  2.1759 -1.4631
    5NME   HH32   41  20.891   9.966   8.541  0.6461 -0.9036  0.5000
    5NME   HH33   42  20.741  10.042   8.510 -0.2842  0.0506  0.3643
  20.91516  20.91516  20.91516
