Protein
   42
    1ACE   HH31    1  12.777  20.063   9.794  0.2968  3.5325 -0.3236
    1ACE    CH3    2  12.854  20.072   9.870  0.6600 -0.5346 -0.0189
    1ACE   HH32    3  12.898  19.973   9.883 -1.2421 -1.3148  0.7588
    1ACE   HH33    4  12.828  20.123   9.963  1.5870 -0.7866  0.3845
    1ACE      C    5  12.954  20.160   9.805 -0.3642  0.2232  0.2284
    1ACE      O    6  12.952  20.282   9.820  0.3762 -0.2364 -0.3265
    2ALA      N    7  13.048  20.103   9.729 -0.1791 -0.1908  0.0894
    2ALA      H    8  13.038  20.005   9.711  0.7573 -0.2798 -0.0268
    2ALA     CA    9  13.175  20.164   9.676 -0.3564  0.4016  0.0679
    2ALA     HA   10  13.161  20.267   9.642  0.4111 -0.3095 -2.6396
    2ALA     CB   11  13.274  20.164   9.802 -0.7596  0.3899 -0.1824
    2ALA    HB1   12  13.233  20.208   9.893  0.9431 -0.0161  0.8182
    2ALA    HB2   13  13.293  20.064   9.842  0.1606  1.0892  1.2251
    2ALA    HB3   14  13.371  20.210   9.782 -0.9648  1.8469  1.8756
    2ALA      C   15  13.236  20.075   9.567  0.1081  0.3070  0.2942
    2ALA      O   16  13.207  19.955   9.561 -0.2053 -0.5927  0.4083
    3ALA      N   17  13.327  20.128   9.483 -0.2379 -0.2115  0.3696
    3ALA      H   18  13.375  20.060   9.426 -0.2309 -0.1268  0.2757
    3ALA     CA   19  13.351  20.272   9.457 -0.3552  0.0375 -0.3712
    3ALA     HA   20  13.281  20.336   9.510  2.8321  2.2632  1.5497
    3ALA     CB   21  13.491  20.315   9.497  0.9246  0.3122  0.1172
    3ALA    HB1   22  13.497  20.423   9.480  0.3797  0.2802 -0.3447
    3ALA    HB2   23  13.503  20.294   9.603  0.0058  0.5778  0.2839
    3ALA    HB3   24  13.558  20.254   9.437  3.7871  2.2042  1.1806
    3ALA      C   25  13.334  20.296   9.307  0.1439  0.2233 -0.6768
    3ALA      O   26  13.358  20.200   9.234  0.3811 -0.5651 -0.4503
    4ALA      N   27  13.299  20.418   9.255 -0.5484 -0.0630 -0.7263
    4ALA      H   28  13.281  20.489   9.324 -0.7761 -2.8428  2.3206
    4ALA     CA   29  13.253  20.436   9.119 -0.6841  0.0650  0.5456
    4ALA     HA   30  13.190  20.351   9.091 -2.6227  1.3960  0.7115
    4ALA     CB   31  13.151  20.550   9.122 -1.1521 -0.1968 -0.4562
    4ALA    HB1   32  13.121  20.572   9.019  1.6527  0.3925 -1.2348
    4ALA    HB2   33  13.062  20.521   9.177 -2.6031  0.4570 -2.3675
    4ALA    HB3   34  13.196  20.636   9.171 -1.2164 -0.2778 -0.2551
    4ALA      C   35  13.370  20.438   9.007  0.5543 -0.9706 -0.0920
    4ALA      O   36  13.363  20.515   8.907  0.1158  0.3713  0.2432
    5NME      N   37  13.472  20.357   9.027 -0.0238 -0.5684  0.4640
    5NME      H   38  13.463  20.274   9.084  2.2798 -1.7268 -0.7548
    5NME    CH3   39  13.595  20.352   8.944 -0.2859 -1.1825  0.2620
    5NME   HH31   40  13.572  20.412   8.856 -0.1761  3.1507  2.8467
    5NME   HH32   41  13.677  20.405   8.993 -0.2202  1.0587 -2.0495
    5NME   HH33   42  13.620  20.253   8.907 -0.4923 -1.1153 -0.0629
  20.91516  20.91516  20.91516
