Protein
   32
    1ACE   HH31    1  13.909  13.832  10.704  1.1799 -0.1186  1.7800
    1ACE    CH3    2  13.846  13.761  10.759 -0.6242  0.0227  0.0267
    1ACE   HH32    3  13.757  13.820  10.780 -1.2246 -0.0517 -1.9569
    1ACE   HH33    4  13.890  13.725  10.852 -2.9463 -1.5517  0.6006
    1ACE      C    5  13.812  13.647  10.669  0.8835  0.0366 -0.1806
    1ACE      O    6  13.898  13.585  10.606 -0.1003  0.1018  1.0528
    2ALA      N    7  13.685  13.609  10.672  0.2921  0.2211  0.1645
    2ALA      H    8  13.620  13.641  10.742 -0.5352 -1.0063  0.0071
    2ALA     CA    9  13.611  13.529  10.567 -0.4318  0.0542  0.1172
    2ALA     HA   10  13.504  13.536  10.590 -0.3817 -1.6330  1.0744
    2ALA     CB   11  13.631  13.589  10.427 -0.6457  0.1368 -0.4065
    2ALA    HB1   12  13.554  13.562  10.356 -0.6193 -1.1070  0.0055
    2ALA    HB2   13  13.636  13.696  10.443  0.9444 -0.0063  0.3417
    2ALA    HB3   14  13.726  13.564  10.380 -0.2295  2.1237 -0.7398
    2ALA      C   15  13.652  13.380  10.560 -0.3864  0.2489 -0.8219
    2ALA      O   16  13.573  13.302  10.507 -0.4118 -0.5402 -0.3416
    3ALA      N   17  13.765  13.337  10.626  0.5420 -0.0941 -0.1944
    3ALA      H   18  13.821  13.409  10.668  0.4208  0.4292 -0.9302
    3ALA     CA   19  13.808  13.199  10.649  0.3053 -0.0206 -0.4071
    3ALA     HA   20  13.854  13.153  10.561  0.6794 -1.6135  0.5733
    3ALA     CB   21  13.936  13.210  10.730 -0.2271 -0.8038 -0.1811
    3ALA    HB1   22  13.959  13.108  10.762  1.4580  0.2977  2.4563
    3ALA    HB2   23  14.013  13.238  10.659 -0.1395 -0.6464 -0.0266
    3ALA    HB3   24  13.926  13.278  10.815 -1.2579  0.8430 -1.5507
    3ALA      C   25  13.700  13.102  10.704  0.7040 -0.3492  0.3043
    3ALA      O   26  13.661  13.011  10.633  0.3064 -0.2545 -0.7760
    4NME      N   27  13.659  13.123  10.829 -0.1694 -0.1273 -0.0412
    4NME      H   28  13.709  13.184  10.892 -0.9844  1.3509 -0.7623
    4NME    CH3   29  13.536  13.072  10.874 -0.0598 -0.2901 -0.1961
    4NME   HH31   30  13.538  12.965  10.854  0.7832  0.0677 -2.3673
    4NME   HH32   31  13.516  13.082  10.981  0.3497  0.1511 -0.1560
    4NME   HH33   32  13.456  13.121  10.817  1.0568  2.1081  0.1622
  20.99041  20.99041  20.99041
