Protein
   32
    1ACE   HH31    1  16.696   5.649   8.434 -3.3478  0.9569  1.5294
    1ACE    CH3    2  16.766   5.693   8.505 -0.7252 -0.2050 -0.1679
    1ACE   HH32    3  16.781   5.799   8.485  0.2949 -0.1022  1.0181
    1ACE   HH33    4  16.863   5.644   8.514  0.1592  1.7929  2.9034
    1ACE      C    5  16.712   5.702   8.654 -0.1969  0.8026  0.8006
    1ACE      O    6  16.599   5.665   8.686  0.0355 -0.7654 -0.2021
    2ALA      N    7  16.802   5.745   8.747  0.3861 -0.0430 -0.0157
    2ALA      H    8  16.892   5.774   8.711  1.1966 -0.2502  1.7254
    2ALA     CA    9  16.786   5.748   8.896 -0.2150  0.1629  0.1170
    2ALA     HA   10  16.885   5.754   8.940 -0.1074  0.2938 -0.1403
    2ALA     CB   11  16.705   5.868   8.939  0.0925  0.1142  0.3891
    2ALA    HB1   12  16.704   5.862   9.048  1.4856  2.3111  0.5942
    2ALA    HB2   13  16.747   5.967   8.918 -0.4094  0.3832  0.6089
    2ALA    HB3   14  16.603   5.867   8.900 -0.7440  3.2671  2.1633
    2ALA      C   15  16.729   5.612   8.946 -0.0396 -0.3182 -0.2768
    2ALA      O   16  16.787   5.507   8.932 -0.0395  0.3565 -0.1146
    3ALA      N   17  16.614   5.615   9.010  0.4503 -0.5895 -0.4439
    3ALA      H   18  16.575   5.707   9.024 -0.3425 -1.2007  1.7107
    3ALA     CA   19  16.530   5.499   9.041 -0.4495  0.2702 -0.0251
    3ALA     HA   20  16.582   5.410   9.006 -0.8238  0.5577 -1.3768
    3ALA     CB   21  16.523   5.483   9.191  0.5748  0.3230 -0.8443
    3ALA    HB1   22  16.496   5.380   9.216  0.5775  0.8192  1.3167
    3ALA    HB2   23  16.624   5.491   9.231  0.4252  0.7933 -0.5634
    3ALA    HB3   24  16.463   5.560   9.238 -0.3237  0.6197 -2.4030
    3ALA      C   25  16.394   5.497   8.969 -0.1345  0.1662 -0.1295
    3ALA      O   26  16.290   5.469   9.018 -0.3489 -0.0518 -0.6176
    4NME      N   27  16.393   5.545   8.842  0.3900 -0.1110  0.1183
    4NME      H   28  16.472   5.581   8.790 -2.0975  2.6201 -2.0303
    4NME    CH3   29  16.273   5.549   8.753 -0.1351  0.3231 -0.6357
    4NME   HH31   30  16.192   5.507   8.812  1.8744 -0.9205  1.3564
    4NME   HH32   31  16.252   5.655   8.737  0.7829  0.7533  0.7751
    4NME   HH33   32  16.287   5.502   8.656 -2.3331 -1.1379 -0.3213
  20.99041  20.99041  20.99041
