Protein
   42
    1ACE   HH31    1  10.939  10.894   8.559 -1.9824 -2.5079 -0.1046
    1ACE    CH3    2  10.916  10.915   8.663 -0.0219  0.5033 -0.1399
    1ACE   HH32    3  10.877  10.822   8.707 -1.5838  0.3230 -1.7594
    1ACE   HH33    4  10.846  10.998   8.671 -1.3446 -0.3263 -2.3662
    1ACE      C    5  11.047  10.927   8.749 -0.1840  0.5721 -0.4162
    1ACE      O    6  11.123  10.831   8.775 -0.4820 -0.1900 -0.2382
    2ALA      N    7  11.075  11.050   8.792 -0.1386  0.0732  0.0303
    2ALA      H    8  11.007  11.121   8.767  0.1552  0.8160  1.1978
    2ALA     CA    9  11.195  11.097   8.862 -0.3624  0.2911  0.4881
    2ALA     HA   10  11.184  11.204   8.875 -2.3605  0.4384 -1.7068
    2ALA     CB   11  11.203  11.027   8.996  0.3784  0.2373  0.0021
    2ALA    HB1   12  11.230  10.922   8.984  0.6448  0.1645  1.1180
    2ALA    HB2   13  11.283  11.072   9.055 -0.0711  2.0581 -0.6974
    2ALA    HB3   14  11.105  11.040   9.042  0.9754  1.5032  0.9930
    2ALA      C   15  11.331  11.079   8.791 -0.5804 -0.6479  0.1670
    2ALA      O   16  11.407  11.175   8.793 -0.7013 -0.3580  0.0339
    3ALA      N   17  11.352  10.977   8.709 -0.4069  0.1017 -0.0567
    3ALA      H   18  11.287  10.900   8.707 -0.4772  0.1473  0.4581
    3ALA     CA   19  11.469  10.963   8.621  0.1134  0.0595 -0.2220
    3ALA     HA   20  11.547  11.017   8.674 -1.5358  0.1970  2.2120
    3ALA     CB   21  11.519  10.820   8.614  0.0639 -0.0222  0.0402
    3ALA    HB1   22  11.447  10.751   8.572 -0.6319  0.5080  0.3378
    3ALA    HB2   23  11.606  10.819   8.549 -0.8273  0.0914 -1.1760
    3ALA    HB3   24  11.554  10.787   8.712  1.2680  1.6589  0.2339
    3ALA      C   25  11.453  11.033   8.486  1.7797  0.6702 -0.1862
    3ALA      O   26  11.342  11.072   8.458 -0.4386 -0.6432  0.3948
    4ALA      N   27  11.561  11.038   8.411 -0.1844 -0.1870  0.0063
    4ALA      H   28  11.643  11.006   8.460 -0.3489  1.5436  1.5216
    4ALA     CA   29  11.581  11.088   8.278 -0.1191  0.6578 -0.7738
    4ALA     HA   30  11.525  11.027   8.208  0.2021 -2.7039  1.6648
    4ALA     CB   31  11.542  11.235   8.273 -0.2292 -0.3515 -0.1948
    4ALA    HB1   32  11.584  11.288   8.359 -1.3734  1.0890 -0.4745
    4ALA    HB2   33  11.575  11.278   8.178 -1.1521 -0.0325 -0.3835
    4ALA    HB3   34  11.434  11.251   8.272 -0.0953  0.8373  1.3075
    4ALA      C   35  11.727  11.068   8.239  0.0282 -0.0268 -0.3404
    4ALA      O   36  11.808  11.020   8.321  0.0259 -0.4470 -0.5919
    5NME      N   37  11.758  11.095   8.110 -0.3780 -0.9579 -0.1325
    5NME      H   38  11.682  11.129   8.053  1.5383  2.5139 -0.9154
    5NME    CH3   39  11.894  11.103   8.051 -0.4298 -0.3895  0.6647
    5NME   HH31   40  11.940  11.004   8.050 -0.7703 -0.5640 -0.7184
    5NME   HH32   41  11.892  11.155   7.955 -0.6615  2.3190  2.0381
    5NME   HH33   42  11.965  11.165   8.105  1.8912 -2.0633 -0.3208
  20.91516  20.91516  20.91516
