Protein
   42
    1ACE   HH31    1  10.042   9.943  12.303 -0.0194 -1.3126  0.4013
    1ACE    CH3    2  10.121   9.964  12.375 -0.5911  0.2223  0.6107
    1ACE   HH32    3  10.100   9.899  12.459 -0.7017 -0.5394 -0.0010
    1ACE   HH33    4  10.126  10.066  12.412  1.4707  0.1369  0.7294
    1ACE      C    5  10.254   9.912  12.322  0.2337  0.1690  0.2896
    1ACE      O    6  10.255   9.811  12.251 -0.4873 -0.5143 -0.3507
    2ALA      N    7  10.355   9.982  12.350 -0.0863 -0.4021  0.6750
    2ALA      H    8  10.334  10.062  12.409 -2.4594 -0.6283  0.2342
    2ALA     CA    9  10.491   9.954  12.295 -0.3842  0.0254 -0.0118
    2ALA     HA   10  10.487   9.848  12.270  0.7161 -0.8672  3.1462
    2ALA     CB   11  10.522  10.045  12.177 -0.2237 -0.2753 -0.4905
    2ALA    HB1   12  10.454  10.013  12.098  1.0629 -0.5409 -1.5133
    2ALA    HB2   13  10.505  10.151  12.197  1.6104 -0.2141  1.0205
    2ALA    HB3   14  10.624  10.023  12.147 -0.1766 -1.3259  0.3825
    2ALA      C   15  10.595   9.975  12.412 -0.2213  0.0855  0.0888
    2ALA      O   16  10.567  10.042  12.509 -0.8327  0.0191  0.7302
    3ALA      N   17  10.711   9.907  12.414 -0.6793  0.4082  0.1829
    3ALA      H   18  10.776   9.940  12.484 -0.2881  0.6995 -0.3134
    3ALA     CA   19  10.757   9.783  12.353  0.2598  0.0997 -0.1983
    3ALA     HA   20  10.747   9.789  12.245  0.1360  0.3666 -0.1746
    3ALA     CB   21  10.905   9.769  12.398  0.1208 -0.5290  0.2999
    3ALA    HB1   22  10.929   9.664  12.381  2.4080  0.0902 -0.8474
    3ALA    HB2   23  10.971   9.833  12.339 -0.4723 -2.2569 -2.3614
    3ALA    HB3   24  10.927   9.790  12.503 -0.4754 -0.9186  0.5028
    3ALA      C   25  10.664   9.661  12.397 -0.6654  0.0692 -0.0351
    3ALA      O   26  10.690   9.550  12.348  0.6996 -0.3868 -0.0183
    4ALA      N   27  10.568   9.675  12.495  0.3590  0.5065 -0.4826
    4ALA      H   28  10.542   9.763  12.536 -1.0375 -0.6057  1.2272
    4ALA     CA   29  10.500   9.556  12.543  0.1258  0.0035  0.0163
    4ALA     HA   30  10.572   9.478  12.566 -0.0165 -0.6890 -1.6856
    4ALA     CB   31  10.409   9.587  12.669 -0.3742 -0.4110 -0.2146
    4ALA    HB1   32  10.460   9.631  12.755 -1.7980 -2.6367  1.9373
    4ALA    HB2   33  10.314   9.640  12.662 -1.8510 -2.4361  2.4854
    4ALA    HB3   34  10.378   9.492  12.712 -1.2546  0.7230  1.8177
    4ALA      C   35  10.407   9.477  12.442  0.0454  0.4618 -0.5670
    4ALA      O   36  10.402   9.355  12.443 -0.0387  0.3579 -0.3869
    5NME      N   37  10.317   9.549  12.375  0.4566 -0.0022  0.7984
    5NME      H   38  10.344   9.646  12.365  1.7456 -0.2149  1.8645
    5NME    CH3   39  10.209   9.495  12.285 -0.2920  0.2359  0.1100
    5NME   HH31   40  10.154   9.412  12.329 -1.3047  1.3271  0.9652
    5NME   HH32   41  10.140   9.577  12.265 -0.6057 -0.2232 -0.7722
    5NME   HH33   42  10.247   9.454  12.191  0.3467  0.0349  0.4451
  20.91516  20.91516  20.91516
