Protein
   42
    1ACE   HH31    1   9.244   9.057   4.043 -1.0983  0.1994  0.2453
    1ACE    CH3    2   9.186   8.965   4.037 -0.0292 -0.4607 -0.2858
    1ACE   HH32    3   9.110   8.974   3.959 -1.9859  3.9311  1.7450
    1ACE   HH33    4   9.128   8.955   4.129 -0.3283  1.5650 -0.1963
    1ACE      C    5   9.278   8.845   4.008  0.0460 -1.1269  0.1099
    1ACE      O    6   9.280   8.747   4.081  0.2485  0.0490 -0.5740
    2ALA      N    7   9.353   8.851   3.899 -0.0494 -0.2027  0.4300
    2ALA      H    8   9.357   8.929   3.836  0.4189 -0.9993 -0.5370
    2ALA     CA    9   9.442   8.742   3.854  0.0033  0.2041  0.0902
    2ALA     HA   10   9.417   8.657   3.918 -2.0237  1.4329  0.9904
    2ALA     CB   11   9.402   8.699   3.709 -0.1795 -0.4156  0.1193
    2ALA    HB1   12   9.404   8.782   3.639  0.3346 -1.9161 -1.7673
    2ALA    HB2   13   9.471   8.619   3.682  1.6039  1.1969 -0.4031
    2ALA    HB3   14   9.307   8.647   3.719  0.5116 -1.6875  0.3840
    2ALA      C   15   9.595   8.782   3.879  0.1984  0.0015 -0.1316
    2ALA      O   16   9.665   8.819   3.783  0.0650 -0.1147  0.5181
    3ALA      N   17   9.650   8.784   4.000 -0.1341  0.1198  0.0929
    3ALA      H   18   9.741   8.829   3.998 -0.4878  1.0026  1.6969
    3ALA     CA   19   9.618   8.707   4.119 -0.5278 -0.0715 -0.2609
    3ALA     HA   20   9.526   8.649   4.114  0.4295 -1.6983  0.1387
    3ALA     CB   21   9.737   8.605   4.129  0.2760 -0.3875 -0.6572
    3ALA    HB1   22   9.839   8.643   4.129  1.0698 -2.1959  2.9977
    3ALA    HB2   23   9.714   8.547   4.218 -2.3238 -0.1740 -1.1061
    3ALA    HB3   24   9.722   8.539   4.043 -2.1693 -0.3060 -0.3589
    3ALA      C   25   9.596   8.804   4.242 -0.5002  0.2186 -0.3923
    3ALA      O   26   9.692   8.846   4.309  0.1468  0.1513 -0.3442
    4ALA      N   27   9.469   8.822   4.279  0.7273  0.5789 -0.2650
    4ALA      H   28   9.398   8.765   4.236  1.7525 -0.6706 -0.3479
    4ALA     CA   29   9.398   8.925   4.356  0.3517 -0.5675 -0.6228
    4ALA     HA   30   9.289   8.917   4.355  0.0622  2.2450 -0.4691
    4ALA     CB   31   9.437   8.913   4.507  0.4053 -0.5286  0.1223
    4ALA    HB1   32   9.396   9.003   4.554 -2.4528 -2.3010  1.3041
    4ALA    HB2   33   9.391   8.824   4.551  2.4007 -1.9654 -0.5461
    4ALA    HB3   34   9.546   8.921   4.510  0.3240  1.2407 -0.1202
    4ALA      C   35   9.437   9.059   4.304  0.2748  0.2181 -0.2250
    4ALA      O   36   9.349   9.141   4.277 -0.0454 -0.2145  0.2899
    5NME      N   37   9.567   9.086   4.288  0.1837 -0.1464  0.8785
    5NME      H   38   9.636   9.019   4.318  0.9042  0.1855  0.0289
    5NME    CH3   39   9.628   9.207   4.238  1.3886 -0.2339  0.0449
    5NME   HH31   40   9.716   9.231   4.297  2.1598  0.4782 -1.3474
    5NME   HH32   41   9.666   9.177   4.140  2.8547  0.8140  0.2797
    5NME   HH33   42   9.556   9.289   4.233  0.6361 -0.8406  0.6874
  20.91516  20.91516  20.91516
