Protein
   42
    1ACE   HH31    1  11.051  10.162   9.909 -1.4523  0.1324 -1.4218
    1ACE    CH3    2  10.998  10.151  10.004  0.0644  0.3117 -0.5241
    1ACE   HH32    3  11.002  10.232  10.077 -1.7154 -2.6211  3.0973
    1ACE   HH33    4  11.055  10.069  10.049 -1.4523 -0.9381 -0.8177
    1ACE      C    5  10.846  10.137   9.982  0.1571 -0.4200 -0.0375
    1ACE      O    6  10.783  10.038  10.025  0.2852 -0.5551  0.2442
    2ALA      N    7  10.789  10.232   9.912  0.6570 -0.4162 -0.0101
    2ALA      H    8  10.843  10.312   9.882  0.6908 -1.2433 -2.3130
    2ALA     CA    9  10.661  10.210   9.850 -0.6784 -0.2126  0.9055
    2ALA     HA   10  10.594  10.149   9.910 -1.9935  0.8590  0.5739
    2ALA     CB   11  10.593  10.347   9.856  0.5520 -0.1392 -0.3615
    2ALA    HB1   12  10.573  10.380   9.957  0.5272 -0.1243 -0.3705
    2ALA    HB2   13  10.645  10.426   9.801 -0.7007  1.1071  0.2032
    2ALA    HB3   14  10.493  10.338   9.814  0.7262  0.3350 -0.9094
    2ALA      C   15  10.671  10.154   9.701  0.1817 -0.0817 -0.4004
    2ALA      O   16  10.771  10.111   9.653 -0.6109  0.1215 -0.1213
    3ALA      N   17  10.562  10.164   9.626 -0.2788 -0.0660  0.1130
    3ALA      H   18  10.480  10.194   9.677 -0.5501  0.4837 -0.6219
    3ALA     CA   19  10.566  10.180   9.484 -0.6340 -0.4194  0.4828
    3ALA     HA   20  10.628  10.101   9.441  0.8012  1.1584 -0.4588
    3ALA     CB   21  10.424  10.158   9.432  0.0916 -0.2358 -0.0524
    3ALA    HB1   22  10.438  10.136   9.326  0.2546 -1.4199  0.2076
    3ALA    HB2   23  10.381  10.067   9.473  1.5687 -0.2182  1.6488
    3ALA    HB3   24  10.361  10.245   9.450 -0.7245 -0.9826  0.8545
    3ALA      C   25  10.633  10.312   9.436 -0.6972  0.1042  0.4429
    3ALA      O   26  10.594  10.372   9.338  0.8484  0.5109  0.1943
    4ALA      N   27  10.748  10.340   9.495 -0.1760 -0.2874 -0.0638
    4ALA      H   28  10.778  10.274   9.565  0.4411  1.1801  1.1215
    4ALA     CA   29  10.851  10.441   9.472  0.5557  0.3640  0.2632
    4ALA     HA   30  10.941  10.381   9.461 -0.9380 -1.5732 -2.9129
    4ALA     CB   31  10.847  10.501   9.326  0.3104 -0.3829  0.2861
    4ALA    HB1   32  10.941  10.548   9.296  0.8835 -2.4282 -1.4034
    4ALA    HB2   33  10.822  10.416   9.263  2.2042 -0.1109 -0.9293
    4ALA    HB3   34  10.764  10.570   9.313  0.1172 -0.1822  2.3242
    4ALA      C   35  10.863  10.537   9.590  0.2440 -0.3760 -0.3774
    4ALA      O   36  10.879  10.498   9.704  0.4362  0.5579 -0.2973
    5NME      N   37  10.841  10.668   9.562  0.8945  0.1514  0.8617
    5NME      H   38  10.799  10.693   9.474  1.5753 -0.3705  0.3830
    5NME    CH3   39  10.838  10.781   9.657  0.0538 -0.5247 -0.2809
    5NME   HH31   40  10.731  10.798   9.671  0.0999 -1.6209  1.5285
    5NME   HH32   41  10.876  10.758   9.756 -0.9869 -1.0605  0.0115
    5NME   HH33   42  10.895  10.868   9.624 -0.4311 -0.0187  0.1863
  20.91516  20.91516  20.91516
