Protein
   32
    1ACE   HH31    1   9.530   7.661   6.673 -0.8411 -1.0946 -1.0978
    1ACE    CH3    2   9.635   7.655   6.642 -0.6069 -0.2565 -0.4862
    1ACE   HH32    3   9.643   7.720   6.555 -2.3730  2.1676  1.0227
    1ACE   HH33    4   9.662   7.550   6.631  0.1176 -0.1830  0.4359
    1ACE      C    5   9.719   7.712   6.748  0.4092  0.7020 -0.3253
    1ACE      O    6   9.679   7.803   6.813  0.0549  0.2267  0.0268
    2ALA      N    7   9.833   7.645   6.763 -0.7416  0.7147 -0.0063
    2ALA      H    8   9.857   7.577   6.694 -0.5263  1.5954 -0.8233
    2ALA     CA    9   9.941   7.676   6.859 -0.4689  0.6010 -0.1945
    2ALA     HA   10   9.921   7.650   6.963 -0.1062 -1.4376 -0.6000
    2ALA     CB   11  10.045   7.562   6.822 -0.2380  0.0586 -0.0235
    2ALA    HB1   12  10.134   7.562   6.885  0.2043  2.2005 -0.5815
    2ALA    HB2   13   9.991   7.467   6.825 -0.4463  0.1099 -1.5560
    2ALA    HB3   14  10.082   7.582   6.721  0.6233 -1.3505 -0.0228
    2ALA      C   15  10.010   7.819   6.852 -0.7779 -0.2689  0.0436
    2ALA      O   16  10.133   7.824   6.837  0.6032 -0.2386 -0.4152
    3ALA      N   17   9.925   7.926   6.852 -0.2332  0.3861 -0.0472
    3ALA      H   18   9.825   7.913   6.849 -0.1076 -0.9293  0.5873
    3ALA     CA   19   9.958   8.068   6.832  0.3857  1.1255 -0.4958
    3ALA     HA   20   9.916   8.133   6.909  1.2399  1.1161 -0.0049
    3ALA     CB   21  10.109   8.105   6.845  0.0748 -0.8939  0.2977
    3ALA    HB1   22  10.118   8.212   6.823 -1.5618 -0.7039  0.4097
    3ALA    HB2   23  10.151   8.086   6.944  0.2048 -3.0967 -0.1392
    3ALA    HB3   24  10.168   8.060   6.765 -0.0027  0.1954 -0.4086
    3ALA      C   25   9.898   8.116   6.697 -0.2865 -0.2189  0.0843
    3ALA      O   26   9.959   8.203   6.634 -0.0762 -0.2657  0.3891
    4NME      N   27   9.787   8.063   6.647 -0.4990  0.6252  0.0755
    4NME      H   28   9.747   7.994   6.708  0.0945  0.8526  0.7468
    4NME    CH3   29   9.709   8.114   6.537 -0.3594  0.2206 -0.2165
    4NME   HH31   30   9.777   8.157   6.464  1.3450 -3.0284 -0.7261
    4NME   HH32   31   9.650   8.041   6.481  0.7320  1.0599 -2.5827
    4NME   HH33   32   9.633   8.183   6.575 -0.1038  0.5789 -0.3533
  20.99041  20.99041  20.99041
