Protein
   22
    1ACE   HH31    1  10.483   3.982   5.693 -0.4571  1.1786  0.7175
    1ACE    CH3    2  10.396   3.919   5.672  0.4808 -0.1261  0.6170
    1ACE   HH32    3  10.367   3.925   5.568  1.3572 -1.2302  0.2955
    1ACE   HH33    4  10.305   3.951   5.722 -0.0415  1.0061 -0.9881
    1ACE      C    5  10.430   3.773   5.700 -0.0482 -0.4015 -0.6147
    1ACE      O    6  10.522   3.752   5.783  0.6400 -0.3867 -0.1741
    2ALA      N    7  10.349   3.673   5.659 -0.0683 -0.2107 -0.2963
    2ALA      H    8  10.277   3.698   5.593 -0.6379  0.7091  0.6451
    2ALA     CA    9  10.354   3.527   5.695  0.1217 -0.4563  0.0169
    2ALA     HA   10  10.270   3.473   5.651  0.6682 -1.4394  0.1460
    2ALA     CB   11  10.468   3.469   5.623  0.0901  0.1273  0.3957
    2ALA    HB1   12  10.459   3.512   5.523  0.0659  1.1425  0.8191
    2ALA    HB2   13  10.560   3.495   5.674 -0.2592 -0.3215  1.2670
    2ALA    HB3   14  10.468   3.362   5.607 -0.4164  0.6323 -4.1393
    2ALA      C   15  10.350   3.488   5.839  0.1014  0.0078 -0.2535
    2ALA      O   16  10.261   3.417   5.890  0.4973  0.1846 -0.1690
    3NME      N   17  10.442   3.537   5.925  0.0411 -0.9074 -0.0449
    3NME      H   18  10.505   3.607   5.889 -0.1178 -0.8347 -0.1861
    3NME    CH3   19  10.457   3.488   6.064 -0.2427 -0.0267 -0.0988
    3NME   HH31   20  10.513   3.395   6.056 -1.5219 -0.8679  0.3626
    3NME   HH32   21  10.514   3.552   6.132  1.2779 -3.6687  2.3874
    3NME   HH33   22  10.364   3.455   6.109 -0.0955 -2.0403 -1.1428
  10.72160  10.72160  10.72160
