Protein
   32
    1ACE   HH31    1   9.839  10.986  11.124  0.8971 -0.7190 -0.7359
    1ACE    CH3    2   9.738  10.983  11.163  1.1000 -0.5885 -0.1953
    1ACE   HH32    3   9.675  11.032  11.088  1.9038  0.6629 -0.0892
    1ACE   HH33    4   9.749  11.049  11.249 -1.9776 -0.3538  0.1410
    1ACE      C    5   9.685  10.843  11.195 -0.3386  0.4487 -0.1282
    1ACE      O    6   9.581  10.799  11.145  0.4821  0.1036 -0.1366
    2ALA      N    7   9.752  10.778  11.290  0.0175  0.0216  0.5331
    2ALA      H    8   9.834  10.823  11.329  0.7310  1.3866 -2.2077
    2ALA     CA    9   9.692  10.667  11.356  0.2013 -0.0517  0.3487
    2ALA     HA   10   9.643  10.603  11.282 -0.7337 -0.8733  1.6509
    2ALA     CB   11   9.808  10.575  11.406  0.0014 -0.2315 -0.3447
    2ALA    HB1   12   9.767  10.487  11.457  0.6857  0.7250  1.9984
    2ALA    HB2   13   9.870  10.539  11.324 -0.3037  2.3586 -1.8298
    2ALA    HB3   14   9.857  10.641  11.477 -0.5868 -0.5518  0.3774
    2ALA      C   15   9.579  10.697  11.456 -0.0074  0.2055 -0.6445
    2ALA      O   16   9.568  10.809  11.507  0.3094  0.6711 -0.4460
    3ALA      N   17   9.510  10.591  11.502 -0.6081  0.1455 -0.1190
    3ALA      H   18   9.528  10.496  11.472  0.9061  0.0385  1.0313
    3ALA     CA   19   9.418  10.594  11.615  0.6848 -0.1123 -0.8043
    3ALA     HA   20   9.422  10.689  11.669 -0.3153 -1.4479  1.8751
    3ALA     CB   21   9.275  10.586  11.557 -0.0357 -1.0827 -0.7244
    3ALA    HB1   22   9.274  10.635  11.460  1.6580  0.3787 -0.0613
    3ALA    HB2   23   9.250  10.485  11.524 -0.9841 -1.9790  2.4430
    3ALA    HB3   24   9.196  10.633  11.616 -0.9263 -0.2540 -2.4975
    3ALA      C   25   9.437  10.483  11.716 -0.8398  0.5263  0.4498
    3ALA      O   26   9.470  10.371  11.675  0.0109  0.0113  0.2724
    4NME      N   27   9.430  10.513  11.848 -0.4274 -0.0131  0.0073
    4NME      H   28   9.413  10.608  11.875 -1.6077 -0.0832 -0.4329
    4NME    CH3   29   9.467  10.413  11.945  0.4613  0.0238 -0.0565
    4NME   HH31   30   9.571  10.428  11.975  0.6784 -2.1170  0.4527
    4NME   HH32   31   9.404  10.415  12.034  0.0797 -0.3829 -0.3174
    4NME   HH33   32   9.454  10.314  11.902 -0.2832  1.4514 -3.4257
  20.99041  20.99041  20.99041
