Title
  129
    1AIB    CAY    1  22.943  22.155  21.448 -0.0777 -0.2475 -0.2020
    1AIB    HY1    2  22.971  22.258  21.480  1.3891 -1.0642  1.3410
    1AIB    HY2    3  22.869  22.159  21.366 -0.7539  0.0023  0.4001
    1AIB    HY3    4  23.043  22.119  21.417  0.7505  3.2348 -2.0612
    1AIB     CY    5  22.899  22.076  21.569 -0.2324  0.2259 -0.1521
    1AIB     OY    6  22.882  22.125  21.679  0.6194 -0.1488  0.4668
    1AIB      N    7  22.878  21.943  21.540 -0.0382 -0.4276 -0.6947
    1AIB     HN    8  22.882  21.913  21.445  1.1302 -2.0088 -0.2029
    1AIB     CA    9  22.826  21.847  21.632 -0.3257 -0.0527  0.1870
    1AIB    CB1   10  22.933  21.811  21.730 -0.2113  0.5645  1.1750
    1AIB   HB11   11  22.962  21.901  21.788  4.0182 -0.3972  0.8919
    1AIB   HB12   12  23.022  21.773  21.674 -0.6078 -0.4563  1.2218
    1AIB   HB13   13  22.905  21.729  21.799 -0.0932  1.9235  2.8933
    1AIB    CB2   14  22.778  21.719  21.561  0.6004  0.2232  0.9085
    1AIB   HB21   15  22.706  21.743  21.480 -0.7234  2.1427  2.5467
    1AIB   HB22   16  22.731  21.637  21.620  0.6200 -0.6135 -0.1933
    1AIB   HB23   17  22.859  21.665  21.508 -0.4890 -1.4660  0.8792
    1AIB      C   18  22.697  21.899  21.704 -0.7178  0.9582  0.2576
    1AIB      O   19  22.607  21.957  21.651 -0.1539  0.1550  0.5225
    2AIB      N   20  22.691  21.876  21.835  0.4776  0.2693 -0.6043
    2AIB     HN   21  22.759  21.833  21.893 -1.0546  0.7072  1.6907
    2AIB     CA   22  22.579  21.912  21.929  0.1596 -0.0513  0.6197
    2AIB    CB1   23  22.628  21.881  22.070  0.5079  0.5405 -0.1377
    2AIB   HB11   24  22.545  21.903  22.140 -0.0355  1.8094 -1.1388
    2AIB   HB12   25  22.717  21.942  22.097 -0.5802  0.8954  3.1161
    2AIB   HB13   26  22.648  21.772  22.080 -3.7371 -0.4385 -0.2492
    2AIB    CB2   27  22.463  21.819  21.897  0.7811 -0.5063  0.0978
    2AIB   HB21   28  22.497  21.715  21.879 -0.4921 -0.8310 -0.5228
    2AIB   HB22   29  22.406  21.849  21.807  1.0754  0.6510  0.2925
    2AIB   HB23   30  22.388  21.820  21.980  0.1038  0.4982 -0.5132
    2AIB      C   31  22.534  22.062  21.924  0.0276 -0.0131  0.2237
    2AIB      O   32  22.414  22.093  21.937 -0.0798 -0.3390 -0.4980
    3AIB      N   33  22.636  22.149  21.909 -0.4107  0.1546 -0.2797
    3AIB     HN   34  22.725  22.106  21.902 -1.1735 -1.5232 -0.3689
    3AIB     CA   35  22.628  22.293  21.901  0.9537  0.4374  0.8701
    3AIB    CB1   36  22.758  22.350  21.858  0.0515  0.2093  0.2572
    3AIB   HB11   37  22.797  22.338  21.755  0.7292  0.2133  0.5144
    3AIB   HB12   38  22.834  22.317  21.931 -1.2739  0.5905  1.8654
    3AIB   HB13   39  22.760  22.461  21.864  3.7617  0.4685 -2.3294
    3AIB    CB2   40  22.578  22.352  22.034  0.0563 -0.2487 -0.2821
    3AIB   HB21   41  22.472  22.327  22.056 -0.4521  1.6730 -0.4207
    3AIB   HB22   42  22.554  22.460  22.029  0.3351 -0.1284  0.8021
    3AIB   HB23   43  22.647  22.339  22.119  0.9833  1.7724 -0.6651
    3AIB      C   44  22.531  22.335  21.791 -0.5781  0.6420  1.5178
    3AIB      O   45  22.458  22.433  21.799  0.4635  1.0145 -1.2303
    4AIB      N   46  22.539  22.264  21.673 -0.2177  0.4205 -0.4073
    4AIB     HN   47  22.598  22.183  21.671 -0.2579  0.2531  2.0643
    4AIB     CA   48  22.466  22.297  21.552 -0.6288 -0.2258  0.2989
    4AIB    CB1   49  22.484  22.183  21.458 -0.1371 -0.2653  0.3471
    4AIB   HB11   50  22.403  22.108  21.472 -0.1776 -0.4248 -0.6904
    4AIB   HB12   51  22.581  22.128  21.457 -0.6251 -1.1698  0.8742
    4AIB   HB13   52  22.479  22.217  21.352  0.2777 -1.7729 -0.1882
    4AIB    CB2   53  22.523  22.431  21.499  0.0451 -0.1361 -0.1740
    4AIB   HB21   54  22.517  22.510  21.577  1.8593  1.1433 -1.2532
    4AIB   HB22   55  22.478  22.451  21.400 -0.6888 -0.7710  0.0228
    4AIB   HB23   56  22.632  22.423  21.481  0.2719  0.7812  0.6836
    4AIB      C   57  22.312  22.323  21.576  0.0121  0.0267 -0.7545
    4AIB      O   58  22.255  22.425  21.529 -0.6493  0.9723  0.4737
    5AIB      N   59  22.248  22.228  21.638  0.4861  0.0905  0.0260
    5AIB     HN   60  22.303  22.149  21.661 -0.7671 -0.7023  0.4244
    5AIB     CA   61  22.110  22.229  21.691 -0.5419  0.2228 -1.1527
    5AIB    CB1   62  22.099  22.108  21.784  0.1127  0.0773  0.6836
    5AIB   HB11   63  22.122  22.018  21.723 -0.5300  0.8481 -0.7071
    5AIB   HB12   64  21.993  22.089  21.813  0.0180 -1.2294 -0.3755
    5AIB   HB13   65  22.149  22.112  21.884 -2.0140 -1.5055  1.8841
    5AIB    CB2   66  22.019  22.197  21.574  0.6639  0.1186  0.2594
    5AIB   HB21   67  21.914  22.217  21.602  1.4782  2.9219  1.7511
    5AIB   HB22   68  22.036  22.103  21.518 -0.0811 -0.9568  1.7730
    5AIB   HB23   69  22.034  22.278  21.500 -1.8356  1.6980  1.3308
    5AIB      C   70  22.071  22.362  21.777 -0.1465 -0.1088  0.3169
    5AIB      O   71  21.970  22.427  21.746  0.0365 -0.0807  0.4357
    6AIB      N   72  22.146  22.395  21.882 -0.1143 -0.2248  0.0306
    6AIB     HN   73  22.226  22.345  21.914 -0.3522  0.3992  1.7259
    6AIB     CA   74  22.115  22.495  21.983 -0.2156  0.4345  0.1242
    6AIB    CB1   75  22.230  22.482  22.090  0.1428  0.4283  0.1277
    6AIB   HB11   76  22.217  22.384  22.141  2.0376 -0.1039 -0.3358
    6AIB   HB12   77  22.245  22.561  22.166 -0.9943 -0.3280  1.1739
    6AIB   HB13   78  22.324  22.479  22.031  0.6717 -1.2269  0.9858
    6AIB    CB2   79  21.983  22.461  22.056  0.2108 -0.0207  0.2250
    6AIB   HB21   80  21.988  22.535  22.139  2.5731  0.2482 -0.1155
    6AIB   HB22   81  21.985  22.363  22.108 -1.4302  0.4738  1.3386
    6AIB   HB23   82  21.895  22.476  21.989  0.3077 -2.7543 -0.6556
    6AIB      C   83  22.118  22.629  21.914  0.1860  0.0596  0.1976
    6AIB      O   84  22.039  22.718  21.942  0.5065 -0.4748 -0.0210
    7AIB      N   85  22.221  22.642  21.821  0.6564  0.8035  0.0739
    7AIB     HN   86  22.286  22.567  21.813 -0.2943 -0.0391  0.1339
    7AIB     CA   87  22.270  22.763  21.762  0.4738 -0.1665 -0.2102
    7AIB    CB1   88  22.397  22.734  21.677 -0.1048  0.7330  0.1727
    7AIB   HB11   89  22.380  22.654  21.602  2.0969  1.9343 -1.6969
    7AIB   HB12   90  22.481  22.700  21.741  0.4296  0.6659 -0.5450
    7AIB   HB13   91  22.433  22.824  21.623  1.6399  1.1183  1.8811
    7AIB    CB2   92  22.302  22.875  21.857 -0.2024 -0.2796  0.4011
    7AIB   HB21   93  22.367  22.941  21.797 -1.4641 -0.4930 -1.2545
    7AIB   HB22   94  22.357  22.834  21.945 -0.7577 -1.1488  0.3541
    7AIB   HB23   95  22.215  22.927  21.902  0.5457  0.6510  0.7958
    7AIB      C   96  22.160  22.811  21.663  0.1048 -0.1376 -0.1440
    7AIB      O   97  22.162  22.931  21.641  0.3071 -0.4895  0.5523
    8AIB      N   98  22.071  22.724  21.610  0.8816 -0.2071 -0.4478
    8AIB     HN   99  22.076  22.625  21.611  1.5568 -0.1744 -0.0717
    8AIB     CA  100  21.984  22.764  21.501  0.0045 -0.1315  0.6989
    8AIB    CB1  101  21.889  22.649  21.479  0.4963  1.1035 -0.1956
    8AIB   HB11  102  21.930  22.551  21.445 -0.2851  1.1686 -1.3865
    8AIB   HB12  103  21.801  22.668  21.414  0.6587 -2.4327 -1.6608
    8AIB   HB13  104  21.848  22.609  21.575  0.2213 -0.2179 -0.8303
    8AIB    CB2  105  22.066  22.778  21.371 -0.1303  0.1079 -0.0986
    8AIB   HB21  106  21.994  22.781  21.287  0.8891 -0.5407 -1.0178
    8AIB   HB22  107  22.130  22.688  21.361 -1.0543 -0.6972  1.1605
    8AIB   HB23  108  22.132  22.868  21.373  1.0743 -0.6537  4.0895
    8AIB      C  109  21.897  22.892  21.522 -0.4270  0.6322 -0.9520
    8AIB      O  110  21.862  22.953  21.426 -0.4286 -0.0106 -0.3119
    9AIB      N  111  21.860  22.919  21.645  0.8414  0.4489 -0.4414
    9AIB     HN  112  21.886  22.856  21.718  1.7509  0.9114 -0.3511
    9AIB     CA  113  21.787  23.032  21.697  0.7614 -0.1862  0.2974
    9AIB    CB1  114  21.768  22.995  21.847  0.1985  0.0947 -0.4958
    9AIB   HB11  115  21.704  22.904  21.847  1.3638 -0.7581 -1.5185
    9AIB   HB12  116  21.731  23.083  21.904  2.5155  0.0431  1.1994
    9AIB   HB13  117  21.866  22.961  21.885 -0.7386 -2.4521 -0.1091
    9AIB    CB2  118  21.650  23.039  21.626  0.2083  0.4976 -1.3678
    9AIB   HB21  119  21.580  23.112  21.673  0.6401 -1.1771  2.2307
    9AIB   HB22  120  21.600  22.940  21.626  0.0663  0.5714 -1.8173
    9AIB   HB23  121  21.666  23.086  21.527 -3.8561  1.0903 -1.9222
    9AIB      C  122  21.873  23.167  21.693 -0.4585  0.8613 -0.1999
    9AIB      O  123  21.823  23.273  21.725  0.0007  0.1343 -0.4076
    9AIB     NT  124  22.003  23.151  21.665  0.4593 -0.1466 -0.5006
    9AIB    HNT  125  22.032  23.056  21.659  0.0647 -0.2090 -1.6866
    9AIB    CAT  126  22.093  23.253  21.633  0.2417 -0.3910  0.3044
    9AIB    HT1  127  22.200  23.229  21.653  0.3616  0.3897  0.6492
    9AIB    HT2  128  22.077  23.337  21.704 -0.9062  0.0209 -0.4135
    9AIB    HT3  129  22.082  23.282  21.527 -1.3605  0.0920  0.5722
  42.09246  42.09246  42.09246
