Title
  129
    1AIB    CAY    1  22.592  19.144  21.736 -0.1656 -0.0027  0.0372
    1AIB    HY1    2  22.567  19.173  21.840 -1.8460  0.0103 -0.3498
    1AIB    HY2    3  22.669  19.065  21.748  0.9217  1.1826  1.0925
    1AIB    HY3    4  22.502  19.107  21.682 -1.1711  1.7740  0.4364
    1AIB     CY    5  22.659  19.253  21.654  0.5502 -1.1467 -0.5752
    1AIB     OY    6  22.600  19.313  21.566 -0.0201 -0.1808 -0.0019
    1AIB      N    7  22.784  19.272  21.673 -0.8322  0.0536  0.2461
    1AIB     HN    8  22.825  19.220  21.747 -0.1954  2.4041  1.6512
    1AIB     CA    9  22.867  19.364  21.595  0.2148 -0.4662  0.3063
    1AIB    CB1   10  22.917  19.299  21.462 -0.7685  0.2393 -0.2133
    1AIB   HB11   11  22.968  19.366  21.390 -1.2007 -1.3550 -2.0917
    1AIB   HB12   12  22.824  19.264  21.411 -0.3638 -0.8237 -0.2417
    1AIB   HB13   13  22.984  19.212  21.480 -0.1892  0.9737  1.3126
    1AIB    CB2   14  22.992  19.368  21.682 -0.0366  0.3175  0.4989
    1AIB   HB21   15  22.976  19.415  21.782  1.7518 -1.0602  1.4943
    1AIB   HB22   16  23.071  19.419  21.624 -0.3143 -0.1882 -0.3353
    1AIB   HB23   17  23.031  19.266  21.702  1.2722  0.5829 -0.4998
    1AIB      C   18  22.801  19.514  21.582 -0.3874  0.3255  0.5795
    1AIB      O   19  22.793  19.590  21.679 -0.3081 -0.1198  0.9594
    2AIB      N   20  22.753  19.551  21.464  0.1021 -0.2843  0.0215
    2AIB     HN   21  22.759  19.493  21.383  2.2950 -1.2784  0.7963
    2AIB     CA   22  22.703  19.682  21.432  0.0085  0.5277  0.0798
    2AIB    CB1   23  22.680  19.682  21.277 -0.0431  0.6947  0.4657
    2AIB   HB11   24  22.767  19.643  21.222  0.2218 -0.4392  1.6441
    2AIB   HB12   25  22.671  19.780  21.226  1.0449 -0.3082 -1.8429
    2AIB   HB13   26  22.598  19.614  21.244  2.1280 -2.0055  0.2304
    2AIB    CB2   27  22.803  19.798  21.465 -0.2333  0.1407  0.7098
    2AIB   HB21   28  22.903  19.771  21.425 -0.2602  0.1289  0.6381
    2AIB   HB22   29  22.812  19.803  21.576 -1.1251 -1.4446  0.8769
    2AIB   HB23   30  22.773  19.897  21.426  1.4016  0.4109  0.0585
    2AIB      C   31  22.566  19.711  21.499 -0.4937 -0.2357 -0.6692
    2AIB      O   32  22.535  19.827  21.523 -0.0270  0.5288 -0.2675
    3AIB      N   33  22.491  19.602  21.534 -0.1548 -0.1374  0.7674
    3AIB     HN   34  22.541  19.517  21.522  1.6540  0.7499  1.5663
    3AIB     CA   35  22.360  19.604  21.592  0.8566 -0.0721 -0.4609
    3AIB    CB1   36  22.311  19.455  21.613 -0.3528 -0.0795 -0.0794
    3AIB   HB11   37  22.200  19.451  21.622 -0.4040  0.9914 -0.1004
    3AIB   HB12   38  22.349  19.413  21.709  0.0536  0.4750 -0.0003
    3AIB   HB13   39  22.348  19.398  21.525 -0.1333  0.3848 -0.2993
    3AIB    CB2   40  22.252  19.674  21.502 -0.3893  0.0125 -0.8168
    3AIB   HB21   41  22.286  19.770  21.457 -0.7717  0.5610  0.0309
    3AIB   HB22   42  22.157  19.694  21.556  0.7860  3.7775  0.2731
    3AIB   HB23   43  22.232  19.615  21.411 -3.2630  0.1208 -0.3420
    3AIB      C   44  22.368  19.678  21.731 -0.4640 -0.1796  0.3546
    3AIB      O   45  22.284  19.756  21.779  0.2627  0.0584  0.3926
    4AIB      N   46  22.487  19.650  21.798  0.0468  0.6591  0.0788
    4AIB     HN   47  22.538  19.571  21.766 -0.5529  0.3834 -0.1974
    4AIB     CA   48  22.516  19.720  21.918  0.3773 -0.3847 -0.1327
    4AIB    CB1   49  22.655  19.689  21.961  0.0855 -0.8296  0.3968
    4AIB   HB11   50  22.687  19.760  22.041 -0.3985  1.5985 -1.4647
    4AIB   HB12   51  22.715  19.701  21.868 -0.5411 -1.9815 -0.1697
    4AIB   HB13   52  22.654  19.586  22.004 -1.0704 -1.0147 -0.0432
    4AIB    CB2   53  22.419  19.677  22.032  0.2946 -0.7746  0.7977
    4AIB   HB21   54  22.458  19.713  22.129 -0.7352 -0.6051  1.1633
    4AIB   HB22   55  22.411  19.566  22.032 -1.3914 -0.6857  0.0566
    4AIB   HB23   56  22.316  19.716  22.024 -0.1652 -2.0118  0.4948
    4AIB      C   57  22.507  19.878  21.914 -0.0930  0.1102  0.4211
    4AIB      O   58  22.444  19.937  22.004 -0.2491 -0.5318 -0.0212
    5AIB      N   59  22.576  19.944  21.821 -0.4854 -0.7651 -1.1720
    5AIB     HN   60  22.612  19.897  21.740  1.5660 -0.0069 -0.7686
    5AIB     CA   61  22.587  20.087  21.813  0.3488 -0.0346  0.4566
    5AIB    CB1   62  22.672  20.111  21.678  0.4037  0.2480 -0.8676
    5AIB   HB11   63  22.618  20.057  21.597  0.3302  1.5816 -1.7493
    5AIB   HB12   64  22.776  20.075  21.687 -0.3793 -1.9677  0.0016
    5AIB   HB13   65  22.683  20.220  21.657  2.4327  0.6986  1.9434
    5AIB    CB2   66  22.675  20.152  21.926  0.3546  0.1982  0.5487
    5AIB   HB21   67  22.768  20.091  21.938 -0.1432 -0.2806  2.0708
    5AIB   HB22   68  22.621  20.146  22.022  1.8928 -0.2960  1.4208
    5AIB   HB23   69  22.704  20.258  21.911  0.4642  0.6281  3.2615
    5AIB      C   70  22.449  20.154  21.793  0.9374 -0.5698  0.8228
    5AIB      O   71  22.430  20.266  21.842 -0.4709 -0.0357  0.3739
    6AIB      N   72  22.358  20.083  21.722 -0.4408 -0.5707  0.0731
    6AIB     HN   73  22.375  19.989  21.695  0.4670 -1.1650  2.5069
    6AIB     CA   74  22.224  20.129  21.689 -0.9105 -0.0893 -0.0223
    6AIB    CB1   75  22.169  20.022  21.602 -0.7656 -0.7595 -0.6325
    6AIB   HB11   76  22.141  19.925  21.650  1.9350 -0.7409  1.1956
    6AIB   HB12   77  22.244  20.001  21.523 -0.1627 -0.0777 -0.2520
    6AIB   HB13   78  22.079  20.057  21.547  0.8848  1.1713 -2.2874
    6AIB    CB2   79  22.226  20.268  21.613 -0.6469 -1.2082  0.0454
    6AIB   HB21   80  22.219  20.350  21.688 -0.5610 -2.2195  1.1805
    6AIB   HB22   81  22.127  20.267  21.563 -0.0667  1.0456 -1.2716
    6AIB   HB23   82  22.313  20.259  21.545  0.3972 -0.8906  1.2816
    6AIB      C   83  22.127  20.160  21.804 -0.4445 -0.6135  0.4928
    6AIB      O   84  22.021  20.222  21.796 -0.0185  0.2458 -0.5867
    7AIB      N   85  22.145  20.097  21.925 -0.9005  0.3241 -0.4046
    7AIB     HN   86  22.224  20.037  21.938  0.0534  1.2008 -1.7714
    7AIB     CA   87  22.078  20.123  22.049 -0.6832  0.0099  0.4569
    7AIB    CB1   88  22.145  20.046  22.167 -0.4297  0.0136 -0.7728
    7AIB   HB11   89  22.255  20.050  22.160 -0.5111  3.4038 -1.8149
    7AIB   HB12   90  22.109  19.942  22.184 -0.9641  0.2088 -0.6495
    7AIB   HB13   91  22.116  20.097  22.262 -0.0652  0.6365 -0.9939
    7AIB    CB2   92  21.934  20.071  22.034  0.0357 -1.2138  0.0551
    7AIB   HB21   93  21.887  20.122  21.947 -0.4682  0.2039  1.1241
    7AIB   HB22   94  21.879  20.095  22.127  2.3837 -2.6139  1.9342
    7AIB   HB23   95  21.931  19.960  22.024  3.5157 -1.8169  3.5631
    7AIB      C   96  22.073  20.273  22.084 -0.2865 -0.0631 -0.4533
    7AIB      O   97  21.969  20.321  22.129  0.1481  0.0025 -0.4665
    8AIB      N   98  22.187  20.347  22.063 -0.1241  0.0019  0.1068
    8AIB     HN   99  22.265  20.307  22.016  0.6238 -0.1890  1.4539
    8AIB     CA  100  22.199  20.489  22.094  0.3115 -1.0583 -0.4551
    8AIB    CB1  101  22.354  20.514  22.064  0.2195  0.1924 -0.0752
    8AIB   HB11  102  22.420  20.464  22.138 -0.9804 -0.3468  0.6560
    8AIB   HB12  103  22.375  20.622  22.079 -1.3403  0.5360 -0.1830
    8AIB   HB13  104  22.377  20.502  21.956 -1.4453  2.9628 -0.8432
    8AIB    CB2  105  22.181  20.522  22.242  0.1165 -0.4343  0.2813
    8AIB   HB21  106  22.221  20.621  22.274  0.3054  0.0719 -1.3987
    8AIB   HB22  107  22.230  20.442  22.302  0.5082  0.6497  1.4172
    8AIB   HB23  108  22.076  20.519  22.277  0.3556 -1.8287  0.9866
    8AIB      C  109  22.114  20.590  22.018  0.0845 -0.8052 -0.2064
    8AIB      O  110  22.084  20.700  22.070  0.3678  0.3048 -0.3786
    9AIB      N  111  22.074  20.557  21.893  0.1810 -0.1088 -0.3013
    9AIB     HN  112  22.100  20.463  21.871 -1.7895 -0.9864  0.8241
    9AIB     CA  113  21.990  20.630  21.797  0.0815 -0.1859  0.0928
    9AIB    CB1  114  21.992  20.571  21.659  0.0071 -0.7884  0.0524
    9AIB   HB11  115  21.922  20.625  21.592  0.5067 -2.3029 -1.7265
    9AIB   HB12  116  21.951  20.468  21.658 -1.6110 -0.1715 -0.0035
    9AIB   HB13  117  22.091  20.569  21.609 -0.2523 -1.0757 -0.4450
    9AIB    CB2  118  22.022  20.777  21.771 -0.1730 -0.1621  0.1280
    9AIB   HB21  119  21.980  20.810  21.673  1.9436 -0.3596 -0.9103
    9AIB   HB22  120  22.132  20.791  21.768 -0.2108  0.0448 -1.0798
    9AIB   HB23  121  21.981  20.839  21.853 -2.8489 -1.1849 -0.3122
    9AIB      C  122  21.844  20.625  21.845  0.1288  0.3338  0.9287
    9AIB      O  123  21.757  20.704  21.807 -0.3284  0.0954  0.3046
    9AIB     NT  124  21.813  20.524  21.929 -0.9903 -0.1641 -0.3073
    9AIB    HNT  125  21.886  20.468  21.968 -0.4517  0.0341 -0.9839
    9AIB    CAT  126  21.673  20.496  21.963  0.3542  0.2715 -0.4030
    9AIB    HT1  127  21.625  20.414  21.906  0.3462 -1.5436  2.0963
    9AIB    HT2  128  21.606  20.584  21.962 -2.4525 -1.7135  1.6489
    9AIB    HT3  129  21.666  20.468  22.070 -3.0783  1.5613 -0.1971
  42.09246  42.09246  42.09246
