Protein
   32
    1ACE   HH31    1   9.336  14.871  10.001  0.1686 -0.1879 -1.4154
    1ACE    CH3    2   9.325  14.770   9.962  0.3350 -0.5013 -0.6798
    1ACE   HH32    3   9.220  14.762   9.987  0.4666  2.0618  1.0544
    1ACE   HH33    4   9.395  14.710  10.021  2.3579  1.2676 -1.1395
    1ACE      C    5   9.352  14.743   9.818 -0.0789 -0.1462 -0.3092
    1ACE      O    6   9.269  14.783   9.732  0.3261  0.3305 -0.8155
    2ALA      N    7   9.460  14.670   9.803  0.0962  0.2966  0.5170
    2ALA      H    8   9.496  14.636   9.891 -0.9638 -2.5396 -0.0294
    2ALA     CA    9   9.524  14.609   9.683  0.1140  1.0360  0.6708
    2ALA     HA   10   9.629  14.597   9.708 -0.3513 -1.3748  1.8162
    2ALA     CB   11   9.468  14.463   9.668  0.3953 -0.8384 -0.0907
    2ALA    HB1   12   9.509  14.426   9.574  0.1054 -2.9238  0.5615
    2ALA    HB2   13   9.504  14.396   9.746 -0.2347 -2.8258 -1.4027
    2ALA    HB3   14   9.360  14.459   9.656  0.5336 -0.5095 -1.6419
    2ALA      C   15   9.525  14.688   9.551  0.3475  0.0473  0.0629
    2ALA      O   16   9.611  14.667   9.471 -0.0074 -0.3859 -0.4778
    3ALA      N   17   9.423  14.767   9.517 -0.0772 -0.1999  0.4908
    3ALA      H   18   9.337  14.770   9.569 -0.0444 -0.5791  0.5735
    3ALA     CA   19   9.426  14.854   9.393  0.0573  0.3003 -0.2210
    3ALA     HA   20   9.531  14.862   9.366  0.6754 -2.4526  0.9808
    3ALA     CB   21   9.347  14.781   9.284 -0.3913 -0.5357 -0.2199
    3ALA    HB1   22   9.402  14.689   9.267  3.1412  1.2453  0.5951
    3ALA    HB2   23   9.253  14.745   9.325 -1.2189  0.9706 -0.6961
    3ALA    HB3   24   9.327  14.833   9.190 -0.9572  2.8481  1.5919
    3ALA      C   25   9.378  15.000   9.415  0.4619 -0.4346  0.5685
    3ALA      O   26   9.416  15.093   9.345  0.4878 -0.0611  0.0246
    4NME      N   27   9.305  15.027   9.531  0.0570 -0.7436 -0.2033
    4NME      H   28   9.274  14.948   9.586 -0.7679  0.0401  0.5152
    4NME    CH3   29   9.254  15.164   9.555  0.5960  0.7994 -0.1071
    4NME   HH31   30   9.149  15.155   9.583  0.6792  0.6072  0.1743
    4NME   HH32   31   9.307  15.217   9.634 -0.5214 -1.2665  2.1794
    4NME   HH33   32   9.264  15.225   9.466 -0.1226  0.6437 -0.3021
  20.99041  20.99041  20.99041
