Protein
   42
    1ACE   HH31    1   9.026  10.611  10.660 -0.1616 -1.7279  2.5660
    1ACE    CH3    2   8.999  10.516  10.614  0.2369 -0.5040 -0.4522
    1ACE   HH32    3   8.944  10.534  10.521  0.7606  0.5850 -0.5723
    1ACE   HH33    4   8.943  10.461  10.690  1.1353 -0.7129  0.0638
    1ACE      C    5   9.120  10.445  10.576 -0.5726 -0.5005 -0.7675
    1ACE      O    6   9.229  10.473  10.627 -0.3138 -0.5614  0.2207
    2ALA      N    7   9.109  10.347  10.484  0.3878 -0.1470  0.0790
    2ALA      H    8   9.021  10.355  10.434  0.2002  0.9360  0.5265
    2ALA     CA    9   9.215  10.258  10.425 -0.2962 -0.1650  0.4672
    2ALA     HA   10   9.269  10.200  10.500 -0.8989  0.2096  1.2069
    2ALA     CB   11   9.152  10.155  10.331  0.7108  0.1491  0.8651
    2ALA    HB1   12   9.225  10.089  10.284 -1.0001 -1.5513  0.5081
    2ALA    HB2   13   9.084  10.093  10.390 -1.7828 -3.1872 -4.6121
    2ALA    HB3   14   9.099  10.201  10.247  1.4821 -1.1954 -0.4003
    2ALA      C   15   9.319  10.344  10.345 -0.0399 -0.1570  0.1375
    2ALA      O   16   9.288  10.388  10.232 -0.4948  0.1289 -0.3848
    3ALA      N   17   9.441  10.368  10.391 -0.1590 -0.6531 -0.5485
    3ALA      H   18   9.502  10.417  10.328  0.4333 -0.7378 -0.0518
    3ALA     CA   19   9.501  10.323  10.511 -0.1689  0.6648 -0.2928
    3ALA     HA   20   9.433  10.275  10.581  0.4829 -1.5217 -1.0616
    3ALA     CB   21   9.602  10.206  10.483  0.0621  0.1680 -0.1930
    3ALA    HB1   22   9.630  10.168  10.582  1.7542  1.8706  0.0189
    3ALA    HB2   23   9.573  10.123  10.418  0.6537 -1.6648  1.7243
    3ALA    HB3   24   9.694  10.248  10.445 -0.3582 -0.4029 -1.9251
    3ALA      C   25   9.576  10.441  10.584  0.0530  0.6736 -0.3790
    3ALA      O   26   9.668  10.507  10.529 -0.4817  0.2431 -0.9004
    4ALA      N   27   9.536  10.463  10.709  0.5442 -1.1335  0.5536
    4ALA      H   28   9.461  10.407  10.748 -2.9936  1.4556 -1.8203
    4ALA     CA   29   9.547  10.589  10.784 -0.5125  0.4789 -0.3285
    4ALA     HA   30   9.634  10.638  10.742  0.4900 -1.7721 -1.0814
    4ALA     CB   31   9.415  10.665  10.759 -0.4080 -0.1759 -0.3046
    4ALA    HB1   32   9.431  10.770  10.784  0.9439 -0.5658  0.5790
    4ALA    HB2   33   9.383  10.680  10.656 -3.7403  2.1977  0.9064
    4ALA    HB3   34   9.324  10.637  10.812 -3.0131  3.5839 -2.4096
    4ALA      C   35   9.580  10.555  10.932 -0.0741 -0.0601  0.5702
    4ALA      O   36   9.536  10.448  10.987 -0.4635 -0.4354 -0.5380
    5NME      N   37   9.664  10.635  10.995 -1.2120 -0.1221 -0.9565
    5NME      H   38   9.696  10.722  10.957  0.1631  0.9797  2.3666
    5NME    CH3   39   9.697  10.611  11.137 -0.2045  0.1587  0.7618
    5NME   HH31   40   9.775  10.674  11.178  0.6451  0.7472 -1.5859
    5NME   HH32   41   9.603  10.634  11.187 -1.5313 -0.7253 -1.1997
    5NME   HH33   42   9.718  10.504  11.145  0.6274  0.0895 -1.4395
  20.91516  20.91516  20.91516
