Protein
   42
    1ACE   HH31    1  16.099   5.173  10.105  2.0942  0.9152  0.3788
    1ACE    CH3    2  16.045   5.235  10.177  0.2754 -0.5091  0.3016
    1ACE   HH32    3  16.030   5.179  10.269 -0.4168 -0.3897  0.2686
    1ACE   HH33    4  15.947   5.265  10.138 -0.5760  0.3020  2.8606
    1ACE      C    5  16.127   5.361  10.196 -0.6999  0.3978 -0.7461
    1ACE      O    6  16.082   5.461  10.255 -0.1806  0.2715 -0.4902
    2ALA      N    7  16.253   5.345  10.150  0.3051 -0.2714 -0.0612
    2ALA      H    8  16.271   5.253  10.115 -1.1801  0.3912 -2.8861
    2ALA     CA    9  16.362   5.435  10.154  0.0114 -0.5330 -0.1883
    2ALA     HA   10  16.337   5.525  10.098  2.1134  0.9475  1.0966
    2ALA     CB   11  16.403   5.474  10.305 -0.3033 -0.2054 -0.4649
    2ALA    HB1   12  16.405   5.386  10.368 -1.4263 -0.6537 -1.0307
    2ALA    HB2   13  16.494   5.534  10.310 -0.4390  0.1782 -1.9724
    2ALA    HB3   14  16.322   5.539  10.341 -0.4029  0.5779 -1.9783
    2ALA      C   15  16.485   5.360  10.104  0.1151 -0.1154  0.5175
    2ALA      O   16  16.478   5.239  10.078  0.0926  0.3425  0.0692
    3ALA      N   17  16.586   5.429  10.074 -0.4838 -0.4842  0.1761
    3ALA      H   18  16.577   5.528  10.093 -0.0440  0.4954 -3.8522
    3ALA     CA   19  16.699   5.401   9.985 -0.2503  1.1560  0.8229
    3ALA     HA   20  16.742   5.497   9.954  1.3207 -0.3457 -2.0390
    3ALA     CB   21  16.809   5.339  10.072  0.5123  0.7766 -0.4535
    3ALA    HB1   22  16.834   5.405  10.156  1.2055  1.4491 -1.1768
    3ALA    HB2   23  16.777   5.243  10.114  2.0034  0.4476 -0.0267
    3ALA    HB3   24  16.897   5.330  10.008 -0.6264 -3.8051 -1.7399
    3ALA      C   25  16.678   5.325   9.849  0.3301 -0.2727 -0.3235
    3ALA      O   26  16.752   5.357   9.762 -0.0665 -0.1642 -0.5219
    4ALA      N   27  16.605   5.214   9.840 -0.1612 -0.8446  0.1912
    4ALA      H   28  16.551   5.190   9.921 -2.0655 -1.5021 -1.2053
    4ALA     CA   29  16.581   5.121   9.718 -0.3130 -0.5938 -0.5822
    4ALA     HA   30  16.497   5.060   9.750 -1.2378  1.0147  0.2187
    4ALA     CB   31  16.507   5.196   9.606  0.4834  0.2544 -0.3031
    4ALA    HB1   32  16.447   5.117   9.561  2.4683 -0.8180 -1.1866
    4ALA    HB2   33  16.454   5.283   9.644 -0.3979 -0.0601 -0.7961
    4ALA    HB3   34  16.578   5.230   9.531  0.9011  2.8911  1.2143
    4ALA      C   35  16.695   5.033   9.672 -0.5908 -0.1206 -0.5519
    4ALA      O   36  16.670   4.936   9.609 -0.6809  0.2232  0.0543
    5NME      N   37  16.813   5.066   9.714 -0.5506  0.8555 -0.2980
    5NME      H   38  16.827   5.155   9.759  0.1466  0.5308  0.1696
    5NME    CH3   39  16.926   4.970   9.716  0.0600  0.3521  0.1196
    5NME   HH31   40  17.015   4.998   9.773  2.2582 -1.4432 -2.1770
    5NME   HH32   41  16.895   4.870   9.748  0.2749  0.0255 -0.6696
    5NME   HH33   42  16.957   4.948   9.614  2.5604 -1.0709  1.1027
  20.91516  20.91516  20.91516
