Protein
   32
    1ACE   HH31    1  12.787   9.540   4.164  0.7795 -0.5593  0.1443
    1ACE    CH3    2  12.748   9.440   4.181  0.5329 -0.4816  0.0418
    1ACE   HH32    3  12.794   9.396   4.269 -2.4595 -0.9304  1.5558
    1ACE   HH33    4  12.763   9.381   4.091 -3.1348 -1.3946 -0.1177
    1ACE      C    5  12.601   9.453   4.212 -0.3610 -0.4132 -0.2416
    1ACE      O    6  12.565   9.459   4.326  0.4559 -0.6753  0.3046
    2ALA      N    7  12.519   9.453   4.106 -0.1660  0.0241 -0.6689
    2ALA      H    8  12.560   9.447   4.014  0.7695  1.3286 -0.3959
    2ALA     CA    9  12.374   9.475   4.103 -0.2770 -0.3683 -0.7398
    2ALA     HA   10  12.337   9.522   4.011  0.1961  0.1411 -0.6729
    2ALA     CB   11  12.305   9.332   4.110 -0.2747 -0.5641  0.6011
    2ALA    HB1   12  12.335   9.291   4.207  1.7621  1.2985  0.8372
    2ALA    HB2   13  12.198   9.351   4.117 -0.2956 -0.2953 -0.3938
    2ALA    HB3   14  12.331   9.266   4.028  0.0033 -1.0731  1.0924
    2ALA      C   15  12.295   9.565   4.203  0.9888 -0.1218  0.0361
    2ALA      O   16  12.195   9.611   4.154  0.2030 -0.3064  0.1298
    3ALA      N   17  12.331   9.586   4.330 -0.0610  0.1054 -0.1979
    3ALA      H   18  12.402   9.532   4.377  0.8281  0.4820 -1.0816
    3ALA     CA   19  12.246   9.646   4.433 -0.0829 -0.6186 -0.6999
    3ALA     HA   20  12.141   9.643   4.403 -0.9106  3.2156  1.0917
    3ALA     CB   21  12.261   9.560   4.568 -0.5687 -0.2223  0.1748
    3ALA    HB1   22  12.221   9.620   4.651  0.9706 -0.0964  0.8535
    3ALA    HB2   23  12.204   9.467   4.560 -2.0419  0.6048  0.5452
    3ALA    HB3   24  12.363   9.536   4.595  0.0953 -0.9752 -2.6978
    3ALA      C   25  12.285   9.793   4.458  0.1514 -0.9311  0.4298
    3ALA      O   26  12.343   9.827   4.561  0.3191  0.2344  0.5300
    4NME      N   27  12.253   9.877   4.359  0.5042 -0.3427  0.4276
    4NME      H   28  12.203   9.845   4.278 -0.0694  0.8014  0.2984
    4NME    CH3   29  12.271  10.023   4.368 -0.4621  0.6231  0.8590
    4NME   HH31   30  12.284  10.048   4.474  1.9100 -0.9731  1.0130
    4NME   HH32   31  12.366  10.048   4.321 -1.7457 -0.6315 -2.7368
    4NME   HH33   32  12.192  10.078   4.317  0.0405 -1.0929 -1.9790
  20.99041  20.99041  20.99041
