Protein
   42
    1ACE   HH31    1  16.575  15.214   5.405  0.0706  0.0613  0.5699
    1ACE    CH3    2  16.469  15.217   5.430 -0.0204 -0.0910  0.2185
    1ACE   HH32    3  16.466  15.280   5.519 -0.4439 -0.7928  0.7065
    1ACE   HH33    4  16.422  15.121   5.450  1.1713 -0.8024 -0.2791
    1ACE      C    5  16.390  15.276   5.313  0.4099 -0.0016 -0.5831
    1ACE      O    6  16.454  15.335   5.228 -0.4519 -0.0408 -0.2874
    2ALA      N    7  16.256  15.249   5.322 -0.3146 -0.0106  0.2368
    2ALA      H    8  16.222  15.195   5.400 -0.1917 -0.6499 -0.1445
    2ALA     CA    9  16.149  15.269   5.224  0.2812 -0.9268  0.7579
    2ALA     HA   10  16.092  15.176   5.216  1.2897 -1.5912  1.0485
    2ALA     CB   11  16.059  15.369   5.290  0.2022  0.5141  0.1909
    2ALA    HB1   12  16.099  15.470   5.283  1.7885 -0.1289 -0.4159
    2ALA    HB2   13  15.972  15.368   5.225  2.5180 -0.4242 -3.1724
    2ALA    HB3   14  16.040  15.351   5.396  0.6621  2.6169  0.6759
    2ALA      C   15  16.198  15.302   5.077 -0.1350  0.4947  0.2286
    2ALA      O   16  16.200  15.215   4.990  0.2528  0.3306 -0.5763
    3ALA      N   17  16.243  15.426   5.057  1.3562  0.1452  0.3477
    3ALA      H   18  16.246  15.501   5.126 -0.0690  1.2156 -0.6949
    3ALA     CA   19  16.301  15.477   4.936  0.1231  0.5182  0.5348
    3ALA     HA   20  16.228  15.471   4.856  1.0892  1.1987 -0.4210
    3ALA     CB   21  16.331  15.624   4.954  1.2738 -0.0995 -0.0744
    3ALA    HB1   22  16.235  15.675   4.955  0.5947 -1.1960 -2.5086
    3ALA    HB2   23  16.397  15.641   5.039 -0.2886  2.0002  0.8071
    3ALA    HB3   24  16.376  15.670   4.865  2.1938  1.0136  0.9182
    3ALA      C   25  16.416  15.404   4.870  0.2157 -0.7491  0.3994
    3ALA      O   26  16.431  15.412   4.749  0.5075 -0.5869 -0.0739
    4ALA      N   27  16.494  15.328   4.951 -0.4894 -0.1171 -0.0022
    4ALA      H   28  16.475  15.336   5.050 -0.1162 -0.8112  0.1325
    4ALA     CA   29  16.599  15.231   4.902  0.1633 -0.0194  0.2081
    4ALA     HA   30  16.676  15.295   4.860  0.8865  0.0065  1.5039
    4ALA     CB   31  16.657  15.161   5.028 -0.4465  0.3190  0.3811
    4ALA    HB1   32  16.711  15.236   5.085 -0.8191  0.5425  0.4580
    4ALA    HB2   33  16.588  15.103   5.090 -3.0509  1.1304 -1.5334
    4ALA    HB3   34  16.745  15.101   5.003  0.3204  1.3109  0.6638
    4ALA      C   35  16.559  15.120   4.809 -0.1073  0.4502  0.4077
    4ALA      O   36  16.643  15.042   4.762 -0.4293 -0.7921 -0.4063
    5NME      N   37  16.426  15.105   4.786  0.0312  0.0810 -0.1626
    5NME      H   38  16.357  15.176   4.811 -1.0642 -0.4183 -1.6242
    5NME    CH3   39  16.374  14.996   4.708  0.1344  0.1764  0.0120
    5NME   HH31   40  16.402  14.901   4.754 -0.2686 -0.3596 -0.8261
    5NME   HH32   41  16.266  15.006   4.722  0.0759 -0.2725 -0.0991
    5NME   HH33   42  16.396  15.001   4.602  2.2100 -1.3123  0.2973
  20.91516  20.91516  20.91516
