Protein
   42
    1ACE   HH31    1   6.709   8.710  11.785 -0.7366  1.1444 -0.6015
    1ACE    CH3    2   6.747   8.766  11.870 -0.4060 -0.3282  0.2649
    1ACE   HH32    3   6.843   8.721  11.896  0.4492 -0.7631 -3.1670
    1ACE   HH33    4   6.672   8.770  11.949 -1.2851 -0.5560 -0.5429
    1ACE      C    5   6.778   8.906  11.827 -0.4867 -0.3027 -0.0178
    1ACE      O    6   6.802   8.925  11.706  0.2044  0.3653 -0.0631
    2ALA      N    7   6.783   9.000  11.914 -0.0265 -0.6067 -0.4165
    2ALA      H    8   6.778   8.972  12.011 -3.6464  0.7492 -0.0909
    2ALA     CA    9   6.822   9.138  11.891  0.4994  0.5557  0.4718
    2ALA     HA   10   6.871   9.128  11.794  0.7556 -1.0839  0.7527
    2ALA     CB   11   6.694   9.223  11.887 -0.3977  0.4005  0.3697
    2ALA    HB1   12   6.626   9.186  11.810  0.4677  1.3036 -0.8932
    2ALA    HB2   13   6.656   9.237  11.988  1.8519  1.9309  1.0880
    2ALA    HB3   14   6.730   9.323  11.865 -3.1865  1.3040 -0.5810
    2ALA      C   15   6.926   9.181  11.995 -0.0654  0.5703 -0.3317
    2ALA      O   16   6.899   9.154  12.115  0.4320  0.2853 -0.0835
    3ALA      N   17   7.041   9.246  11.957  0.0126 -0.0517 -0.3794
    3ALA      H   18   7.111   9.246  12.031 -1.9925 -0.8909  1.6386
    3ALA     CA   19   7.094   9.277  11.825 -0.8215  0.1378 -0.2157
    3ALA     HA   20   7.058   9.220  11.739  2.3940  1.0656 -2.3853
    3ALA     CB   21   7.079   9.431  11.801  0.1649 -0.7431  0.0017
    3ALA    HB1   22   6.975   9.455  11.823  1.0807  3.1401  0.8248
    3ALA    HB2   23   7.141   9.496  11.862  0.1040 -0.8140  0.1435
    3ALA    HB3   24   7.091   9.455  11.695  1.2625  0.4573  0.3775
    3ALA      C   25   7.243   9.236  11.828  0.2135 -0.4373 -0.2677
    3ALA      O   26   7.294   9.193  11.930 -0.0853  0.2233  0.3646
    4ALA      N   27   7.307   9.249  11.715  0.5771  0.2174 -0.0938
    4ALA      H   28   7.260   9.286  11.633  0.4102  0.1863 -0.0152
    4ALA     CA   29   7.447   9.221  11.693 -0.1052  0.9836  0.1538
    4ALA     HA   30   7.486   9.187  11.789 -4.6049 -0.5434  1.6638
    4ALA     CB   31   7.461   9.110  11.589  0.2848  0.3997  0.3633
    4ALA    HB1   32   7.484   9.017  11.641 -0.6556 -0.0072  0.0815
    4ALA    HB2   33   7.369   9.100  11.531  1.5953  0.1379 -1.7677
    4ALA    HB3   34   7.530   9.128  11.506  0.2630 -0.5281  0.1345
    4ALA      C   35   7.515   9.351  11.654 -0.1246  0.2301  0.0477
    4ALA      O   36   7.455   9.422  11.573  0.1457 -0.3738 -0.1428
    5NME      N   37   7.637   9.379  11.698 -0.4914  0.2537  0.6242
    5NME      H   38   7.683   9.304  11.747 -1.7396  0.9395  2.9722
    5NME    CH3   39   7.710   9.506  11.660 -0.6381  0.4506  0.2023
    5NME   HH31   40   7.646   9.595  11.660 -1.3129 -0.0196 -0.2007
    5NME   HH32   41   7.792   9.524  11.730  0.2704 -1.6299 -0.2341
    5NME   HH33   42   7.746   9.498  11.558  3.8271  0.9107  1.5626
  20.91516  20.91516  20.91516
