Protein
   42
    1ACE   HH31    1  11.863   8.280  16.044 -0.3165 -0.3959  1.4910
    1ACE    CH3    2  11.764   8.266  16.000  0.0323 -0.1789  0.5945
    1ACE   HH32    3  11.724   8.358  15.957 -2.1432 -0.2059  2.3689
    1ACE   HH33    4  11.701   8.231  16.081 -0.1562 -0.6492  0.2501
    1ACE      C    5  11.762   8.155  15.899 -0.6476 -0.1672 -0.2612
    1ACE      O    6  11.801   8.046  15.946 -0.6040 -0.4022 -0.7390
    2ALA      N    7  11.723   8.185  15.777 -0.0286  0.4817 -0.1770
    2ALA      H    8  11.695   8.280  15.757  0.8235  0.6976 -0.4143
    2ALA     CA    9  11.723   8.100  15.657  0.1255  0.0925  0.1290
    2ALA     HA   10  11.700   7.998  15.690 -1.8125  0.4810  0.0717
    2ALA     CB   11  11.605   8.140  15.566 -0.0197 -0.0409 -0.3287
    2ALA    HB1   12  11.508   8.110  15.606 -0.3048 -0.3547 -1.2338
    2ALA    HB2   13  11.613   8.240  15.524  1.9646 -0.4981 -1.1095
    2ALA    HB3   14  11.603   8.074  15.480 -2.7745 -1.0736  0.3955
    2ALA      C   15  11.867   8.114  15.582  0.1082 -0.2807 -1.0033
    2ALA      O   16  11.886   8.211  15.503 -0.1505  0.0009 -0.9025
    3ALA      N   17  11.968   8.026  15.613 -0.2016  0.7195  0.2925
    3ALA      H   18  12.052   8.038  15.558 -0.2943 -0.3504 -0.1054
    3ALA     CA   19  11.981   7.920  15.704 -0.3005  0.3571 -0.6259
    3ALA     HA   20  11.898   7.923  15.775  0.4393  0.6078  0.2673
    3ALA     CB   21  11.977   7.790  15.621  0.5324  0.3530  0.1694
    3ALA    HB1   22  12.006   7.700  15.676 -0.3442 -1.7335 -2.5492
    3ALA    HB2   23  11.877   7.771  15.582  0.6486  0.2881 -0.1016
    3ALA    HB3   24  12.038   7.802  15.532 -1.8943  1.2881 -1.4454
    3ALA      C   25  12.107   7.924  15.790 -0.0641  0.5428 -0.7076
    3ALA      O   26  12.206   7.990  15.761  0.2162 -0.2877  0.3408
    4ALA      N   27  12.116   7.852  15.903 -0.0233  0.8279  0.2755
    4ALA      H   28  12.039   7.793  15.932 -0.5893  1.8034  0.7985
    4ALA     CA   29  12.210   7.884  16.004  0.0765 -0.3382 -0.7594
    4ALA     HA   30  12.298   7.938  15.970  0.3291  1.2144  2.0824
    4ALA     CB   31  12.128   7.969  16.105  0.0593 -0.3379 -1.1298
    4ALA    HB1   32  12.192   8.008  16.184  0.4528 -0.8440 -1.1924
    4ALA    HB2   33  12.066   8.049  16.065 -0.4671  0.1426  0.5614
    4ALA    HB3   34  12.071   7.895  16.160  0.5380  0.1131  0.0075
    4ALA      C   35  12.269   7.756  16.057  0.4344 -0.3969 -0.3352
    4ALA      O   36  12.217   7.650  16.037  0.3454  0.1969  0.2171
    5NME      N   37  12.370   7.763  16.147  0.5518  0.1586  0.5030
    5NME      H   38  12.403   7.852  16.181 -1.1933  1.7757 -1.6819
    5NME    CH3   39  12.412   7.641  16.225 -0.4603 -0.5677  0.1323
    5NME   HH31   40  12.486   7.581  16.173 -0.2579 -1.5090  1.4586
    5NME   HH32   41  12.478   7.668  16.308  0.8190 -0.1033 -0.9838
    5NME   HH33   42  12.324   7.579  16.240 -0.1941 -0.4183  2.7463
  20.91516  20.91516  20.91516
