Protein
   42
    1ACE   HH31    1  11.309  13.056  13.879 -0.8747 -1.7215 -1.9176
    1ACE    CH3    2  11.409  13.092  13.856 -0.5827 -0.8239  0.3962
    1ACE   HH32    3  11.412  13.102  13.747 -0.8235  1.4080  0.5574
    1ACE   HH33    4  11.486  13.018  13.878  2.2206  1.8456  0.3398
    1ACE      C    5  11.437  13.224  13.924 -0.1623 -0.7928  0.2430
    1ACE      O    6  11.442  13.323  13.852 -0.0969  0.2006 -0.0766
    2ALA      N    7  11.442  13.233  14.057  0.5361  0.2128  0.4667
    2ALA      H    8  11.440  13.144  14.106  0.3525 -0.3767 -0.6046
    2ALA     CA    9  11.465  13.345  14.149  0.7274 -0.1779 -0.0832
    2ALA     HA   10  11.396  13.326  14.231 -1.3268 -1.4636 -1.9768
    2ALA     CB   11  11.609  13.337  14.189  0.0372 -0.0809  0.4583
    2ALA    HB1   12  11.631  13.238  14.231  3.0458  0.6463  0.8870
    2ALA    HB2   13  11.662  13.339  14.094 -0.6913 -0.7803  0.0215
    2ALA    HB3   14  11.629  13.410  14.267 -1.0890 -0.1292  0.8268
    2ALA      C   15  11.418  13.480  14.088  0.7166  0.6067 -0.0784
    2ALA      O   16  11.499  13.571  14.075  0.0426  0.2910  0.4025
    3ALA      N   17  11.288  13.492  14.046  0.1879 -0.2101 -0.1617
    3ALA      H   18  11.269  13.582  14.004  0.8947 -0.7618 -1.6956
    3ALA     CA   19  11.167  13.404  14.061 -0.3711  0.5907  0.1116
    3ALA     HA   20  11.193  13.299  14.078  1.4106  1.5632  4.5231
    3ALA     CB   21  11.096  13.457  14.191 -1.2978 -0.3126 -0.5434
    3ALA    HB1   22  11.167  13.450  14.273 -1.7150  0.4927 -0.0894
    3ALA    HB2   23  11.064  13.559  14.172 -0.7655  1.0401  4.3272
    3ALA    HB3   24  11.009  13.393  14.211 -0.7938 -0.6032  0.9046
    3ALA      C   25  11.075  13.413  13.933  0.2010  0.3039  0.0563
    3ALA      O   26  10.956  13.435  13.935  0.6215 -0.2178  0.0800
    4ALA      N   27  11.145  13.407  13.814 -0.4070  0.1616 -0.2697
    4ALA      H   28  11.245  13.421  13.819 -0.0566 -1.1890 -2.3549
    4ALA     CA   29  11.086  13.361  13.687  0.7776  0.4115  0.4736
    4ALA     HA   30  11.009  13.434  13.664  1.7437  0.9617 -1.2147
    4ALA     CB   31  11.198  13.360  13.579  0.2420 -0.4998 -0.1241
    4ALA    HB1   32  11.149  13.340  13.484 -2.7425  0.3080  1.1089
    4ALA    HB2   33  11.239  13.460  13.564 -0.1534 -0.4462 -0.8524
    4ALA    HB3   34  11.269  13.279  13.599  0.8673 -0.0727 -0.6208
    4ALA      C   35  11.031  13.217  13.689  0.2898 -0.0641 -0.0328
    4ALA      O   36  11.064  13.135  13.780  0.4114  0.8361 -0.8693
    5NME      N   37  10.960  13.177  13.583  0.4950  0.4468 -0.4502
    5NME      H   38  10.943  13.246  13.511  1.2762 -0.4674 -1.5642
    5NME    CH3   39  10.929  13.038  13.551  0.8833 -0.0110 -0.1273
    5NME   HH31   40  10.979  13.006  13.459  0.1345  0.3844 -0.6797
    5NME   HH32   41  10.957  12.965  13.628 -0.8098 -2.1598 -1.4202
    5NME   HH33   42  10.822  13.032  13.533  1.0647  0.7457 -1.6057
  20.91516  20.91516  20.91516
