Protein
   32
    1ACE   HH31    1  12.894   9.340  10.882 -0.3973  0.4155  0.5891
    1ACE    CH3    2  12.983   9.401  10.868 -0.4464  0.2725 -0.5116
    1ACE   HH32    3  13.006   9.407  10.762  0.3918 -0.6722 -0.3953
    1ACE   HH33    4  13.069   9.355  10.916  0.2977  1.0478 -1.0649
    1ACE      C    5  12.965   9.540  10.926 -0.6365  0.3544 -0.2254
    1ACE      O    6  12.972   9.645  10.867 -0.1579 -0.0312  0.8532
    2ALA      N    7  12.914   9.530  11.053 -0.0537 -0.2452 -0.3077
    2ALA      H    8  12.901   9.440  11.097  3.0764 -0.8591 -0.3520
    2ALA     CA    9  12.910   9.645  11.148 -0.8190  0.2031  0.6316
    2ALA     HA   10  12.813   9.693  11.135 -0.9297 -0.4117 -1.1028
    2ALA     CB   11  12.903   9.594  11.294 -0.6770 -0.1755 -0.2632
    2ALA    HB1   12  12.997   9.554  11.332 -1.2665  0.5520  2.1416
    2ALA    HB2   13  12.872   9.669  11.366 -2.3352 -2.1033  1.1473
    2ALA    HB3   14  12.832   9.511  11.296 -0.9163  0.0104 -0.7213
    2ALA      C   15  13.026   9.753  11.124 -0.3134  0.5833  1.1403
    2ALA      O   16  13.146   9.726  11.147 -0.0943 -0.4828 -0.1087
    3ALA      N   17  12.981   9.877  11.072 -0.1264 -0.1870 -0.1315
    3ALA      H   18  12.882   9.891  11.062  0.1339  2.8505  0.4685
    3ALA     CA   19  13.063   9.992  11.038 -0.0990 -0.0638 -0.4350
    3ALA     HA   20  12.999  10.056  10.978  0.8832  1.0392 -0.3615
    3ALA     CB   21  13.093  10.071  11.159  0.1079 -0.7915 -0.9668
    3ALA    HB1   22  13.161  10.020  11.227  0.0962  1.7932  1.1365
    3ALA    HB2   23  13.147  10.161  11.129  0.4077 -0.5250  0.3246
    3ALA    HB3   24  13.005  10.097  11.217  0.8108 -2.0532  0.7407
    3ALA      C   25  13.186   9.968  10.941  0.6088 -0.0398 -0.2164
    3ALA      O   26  13.268  10.055  10.907  0.3310 -0.2637  0.1970
    4NME      N   27  13.178   9.857  10.866  0.2191  0.0414  0.1158
    4NME      H   28  13.103   9.794  10.892  0.2021  0.4795  1.2056
    4NME    CH3   29  13.274   9.810  10.771 -0.3306  0.0390  0.0682
    4NME   HH31   30  13.370   9.835  10.818  0.2049  0.6377 -1.2867
    4NME   HH32   31  13.271   9.702  10.753  1.2038 -0.0588  0.2201
    4NME   HH33   32  13.274   9.866  10.677  2.3696 -0.9883 -0.6666
  20.99041  20.99041  20.99041
