Protein
   22
    1ACE   HH31    1   5.873   4.188   6.655  0.8557 -3.0669 -0.4005
    1ACE    CH3    2   5.949   4.227   6.723 -0.1701 -0.0366 -0.7927
    1ACE   HH32    3   6.054   4.233   6.694  0.5075 -1.9082  1.0341
    1ACE   HH33    4   5.931   4.166   6.811  1.0707  0.6810 -0.0029
    1ACE      C    5   5.903   4.363   6.777  0.0279  0.3978 -0.0157
    1ACE      O    6   5.783   4.380   6.768 -0.0249 -0.1796 -0.1089
    2ALA      N    7   6.000   4.443   6.817  0.7392  0.2967 -0.0061
    2ALA      H    8   6.093   4.404   6.812  0.7748 -0.0499  2.2573
    2ALA     CA    9   6.002   4.589   6.838  0.8849  0.5342 -0.6725
    2ALA     HA   10   5.990   4.596   6.946 -0.8676  0.7767 -0.8560
    2ALA     CB   11   6.144   4.635   6.826  0.3805 -0.0330 -0.1387
    2ALA    HB1   12   6.145   4.738   6.862  1.2654 -0.1860  0.3127
    2ALA    HB2   13   6.214   4.587   6.895  0.6577 -1.8898 -1.6344
    2ALA    HB3   14   6.175   4.611   6.724 -1.8204  0.7304 -1.0428
    2ALA      C   15   5.899   4.681   6.775 -0.5494  0.1843 -0.1308
    2ALA      O   16   5.906   4.798   6.810 -0.2073 -0.1793 -0.4080
    3NME      N   17   5.800   4.639   6.692  0.4566 -0.6596 -0.0255
    3NME      H   18   5.787   4.538   6.688  0.8510 -0.7472  0.7816
    3NME    CH3   19   5.718   4.731   6.619  0.5502  0.2915  0.2302
    3NME   HH31   20   5.625   4.756   6.671  0.5652 -0.1355  0.4693
    3NME   HH32   21   5.777   4.818   6.593 -0.5994  0.7055 -1.0911
    3NME   HH33   22   5.692   4.686   6.523  1.1871  0.2825  0.0590
  10.72160  10.72160  10.72160
