Protein
   22
    1ACE   HH31    1   3.346  10.280   9.403  0.6504 -0.3887 -0.9530
    1ACE    CH3    2   3.263  10.314   9.341 -0.4847 -0.2502  0.5510
    1ACE   HH32    3   3.168  10.285   9.386 -0.7363  0.9097  0.7885
    1ACE   HH33    4   3.269  10.271   9.241 -0.8512 -0.4245  0.6018
    1ACE      C    5   3.283  10.463   9.328  0.3341 -0.1738  0.3089
    1ACE      O    6   3.182  10.535   9.347  0.1421 -0.0666 -0.0432
    2ALA      N    7   3.400  10.500   9.278  0.4015  0.5493  0.6077
    2ALA      H    8   3.466  10.424   9.263 -0.1474  0.3395 -0.8634
    2ALA     CA    9   3.429  10.632   9.214  0.1639  0.2162  0.0908
    2ALA     HA   10   3.453  10.710   9.287  0.1394  1.6794 -1.4055
    2ALA     CB   11   3.561  10.625   9.131  0.3684 -0.0681  0.4487
    2ALA    HB1   12   3.575  10.726   9.092 -0.6100 -0.2263 -0.3389
    2ALA    HB2   13   3.641  10.590   9.196  1.4528  2.1621  0.4218
    2ALA    HB3   14   3.551  10.560   9.044 -1.9159 -0.2396  0.7461
    2ALA      C   15   3.326  10.690   9.117 -0.3623 -0.5446 -0.8191
    2ALA      O   16   3.340  10.814   9.096  0.2272  0.1475  0.2862
    3NME      N   17   3.244  10.604   9.063  0.0162  0.0619  0.0217
    3NME      H   18   3.248  10.505   9.082  0.2710 -0.1512 -1.0822
    3NME    CH3   19   3.146  10.634   8.957 -0.1893  0.4414  0.2825
    3NME   HH31   20   3.157  10.568   8.872 -2.1985  1.0828 -0.5333
    3NME   HH32   21   3.041  10.637   8.986 -0.6122 -1.2611 -0.9131
    3NME   HH33   22   3.172  10.733   8.918  0.2504  0.1229 -0.2371
  10.72160  10.72160  10.72160
