Protein
   42
    1ACE   HH31    1  11.369   7.253  13.640 -1.1817 -2.3949  0.3887
    1ACE    CH3    2  11.465   7.201  13.635  0.3321  0.2825  0.3472
    1ACE   HH32    3  11.516   7.219  13.540  1.0432 -0.6983  0.5245
    1ACE   HH33    4  11.440   7.096  13.648 -0.3013  0.3560 -0.2057
    1ACE      C    5  11.560   7.235  13.753 -0.3632 -0.0053 -0.2876
    1ACE      O    6  11.671   7.196  13.759 -0.4469  0.8415  0.0007
    2ALA      N    7  11.509   7.314  13.854 -0.1207  0.2007 -0.4407
    2ALA      H    8  11.411   7.338  13.843 -0.6898 -1.2295  1.1023
    2ALA     CA    9  11.585   7.374  13.960 -0.0813  0.5888  0.2189
    2ALA     HA   10  11.649   7.443  13.906  1.0907  0.1289  0.9882
    2ALA     CB   11  11.488   7.446  14.055  0.2385  0.0932 -0.2974
    2ALA    HB1   12  11.412   7.386  14.106 -0.5594  1.3875  0.0661
    2ALA    HB2   13  11.544   7.494  14.135  0.0278 -0.5012  0.2145
    2ALA    HB3   14  11.432   7.523  14.001 -1.2498 -0.5810  0.2581
    2ALA      C   15  11.669   7.265  14.041 -0.1269 -0.4439 -0.2849
    2ALA      O   16  11.614   7.156  14.063 -0.6837 -0.2115 -0.2468
    3ALA      N   17  11.791   7.287  14.069 -0.0397  0.7981  0.5723
    3ALA      H   18  11.819   7.383  14.058 -1.0871  1.0030 -0.4682
    3ALA     CA   19  11.885   7.181  14.123 -0.2843  0.5213 -0.3081
    3ALA     HA   20  11.983   7.229  14.123  0.5684 -1.0743 -2.0133
    3ALA     CB   21  11.849   7.169  14.278  0.1072  0.2437  0.4886
    3ALA    HB1   22  11.865   7.269  14.317  2.3448 -0.0260  0.3602
    3ALA    HB2   23  11.748   7.133  14.301 -0.6536  2.4295  0.8727
    3ALA    HB3   24  11.922   7.103  14.326  2.5450  2.3074 -0.2287
    3ALA      C   25  11.912   7.050  14.045  0.1962 -0.4832 -0.2238
    3ALA      O   26  11.982   6.964  14.100 -0.0609 -0.2345 -0.6940
    4ALA      N   27  11.854   7.028  13.926 -0.1908  0.4309  0.1044
    4ALA      H   28  11.805   7.102  13.878  0.0671 -1.8474 -4.2242
    4ALA     CA   29  11.835   6.901  13.860  0.5501 -0.1132 -0.4748
    4ALA     HA   30  11.772   6.919  13.772  0.1980 -1.8683 -0.6268
    4ALA     CB   31  11.956   6.842  13.798 -0.0782  0.2326 -0.0182
    4ALA    HB1   32  12.031   6.812  13.872  1.0136  2.2316 -0.2455
    4ALA    HB2   33  11.926   6.757  13.737  0.8941  0.0108 -0.2138
    4ALA    HB3   34  11.990   6.920  13.729 -0.7499 -2.0008 -3.0307
    4ALA      C   35  11.736   6.807  13.939  0.4094 -0.8362 -0.5520
    4ALA      O   36  11.756   6.687  13.941 -0.2823 -0.2939 -0.2676
    5NME      N   37  11.632   6.855  14.010 -0.0975 -0.3307 -0.8163
    5NME      H   38  11.611   6.954  14.002 -0.9192 -0.3851  0.3358
    5NME    CH3   39  11.549   6.778  14.099  0.0456  0.3977 -0.0432
    5NME   HH31   40  11.603   6.692  14.141 -1.3245  0.0085  1.0141
    5NME   HH32   41  11.522   6.842  14.183 -2.1396 -0.4900 -0.0048
    5NME   HH33   42  11.461   6.744  14.045  0.2462  1.6187 -1.1726
  20.91516  20.91516  20.91516
