Protein
   42
    1ACE   HH31    1   6.207  12.833  12.042 -1.3130 -0.4321  1.9344
    1ACE    CH3    2   6.184  12.746  11.981 -0.6657  0.6100  0.1312
    1ACE   HH32    3   6.125  12.683  12.047  0.8977  1.8850  2.9474
    1ACE   HH33    4   6.273  12.691  11.950  0.1080  2.7790 -1.8594
    1ACE      C    5   6.111  12.793  11.862  0.3637 -0.1093  0.2599
    1ACE      O    6   5.988  12.802  11.863  0.7324 -0.1454 -0.0390
    2ALA      N    7   6.191  12.825  11.750  0.5558 -0.3143 -0.4233
    2ALA      H    8   6.290  12.818  11.769  0.0207 -1.5306  2.6059
    2ALA     CA    9   6.145  12.849  11.609 -1.0124  0.0987 -0.4204
    2ALA     HA   10   6.233  12.897  11.566  0.9131 -3.2176 -0.5684
    2ALA     CB   11   6.135  12.715  11.530  0.6022  0.4615  0.7320
    2ALA    HB1   12   6.047  12.661  11.563 -0.6451  0.9565 -1.5701
    2ALA    HB2   13   6.130  12.742  11.424  0.1977  1.5100  1.0045
    2ALA    HB3   14   6.226  12.661  11.556  0.4152 -0.2670 -0.0974
    2ALA      C   15   6.027  12.951  11.594  0.7028 -0.1837 -0.6964
    2ALA      O   16   5.942  12.935  11.508 -0.6480  0.1702  0.1802
    3ALA      N   17   6.010  13.059  11.671 -0.5137 -0.0217  0.1484
    3ALA      H   18   5.927  13.113  11.649  0.5611  1.6074 -0.0672
    3ALA     CA   19   6.112  13.136  11.738  0.1522  0.3076  0.1789
    3ALA     HA   20   6.211  13.099  11.711  0.2301  1.8755 -1.8894
    3ALA     CB   21   6.102  13.286  11.691 -0.0645  0.0958  0.4452
    3ALA    HB1   22   6.007  13.334  11.715 -0.1280 -0.0865  0.5714
    3ALA    HB2   23   6.189  13.342  11.726  0.7358  0.1050 -1.4206
    3ALA    HB3   24   6.112  13.281  11.582 -0.6739  1.6260  0.2831
    3ALA      C   25   6.102  13.140  11.888 -0.1806  0.4125  0.0357
    3ALA      O   26   6.205  13.123  11.951  0.3805 -0.3900 -0.0838
    4ALA      N   27   5.985  13.174  11.935  0.0241  0.5442 -0.2757
    4ALA      H   28   5.910  13.182  11.868 -0.1159  1.7895  0.0166
    4ALA     CA   29   5.947  13.194  12.080 -0.3306 -0.4932 -0.2312
    4ALA     HA   30   5.853  13.245  12.057  0.3023  0.4503 -0.8066
    4ALA     CB   31   5.921  13.060  12.148  0.1387  0.1719 -0.4777
    4ALA    HB1   32   5.895  13.068  12.254  3.7841 -1.4038  0.7225
    4ALA    HB2   33   5.838  13.013  12.096  0.0178  1.0025 -1.0527
    4ALA    HB3   34   6.006  12.992  12.141 -0.1202 -0.2849  0.6263
    4ALA      C   35   6.027  13.295  12.173 -0.4932 -0.0943 -1.2466
    4ALA      O   36   5.963  13.345  12.269  0.0585 -0.7762 -0.8111
    5NME      N   37   6.158  13.325  12.157  0.4118  0.3136  0.0335
    5NME      H   38   6.209  13.267  12.092 -1.3940  0.7444 -1.8948
    5NME    CH3   39   6.225  13.429  12.236 -0.1767 -0.5871 -0.0695
    5NME   HH31   40   6.227  13.403  12.342  1.3359 -1.9886 -0.3952
    5NME   HH32   41   6.331  13.444  12.215 -0.6905  2.5212 -0.7690
    5NME   HH33   42   6.172  13.523  12.222  1.5456  0.4527  0.0606
  20.91516  20.91516  20.91516
