Protein
   42
    1ACE   HH31    1  10.945  10.445  10.178  1.3486 -1.0746  2.6379
    1ACE    CH3    2  10.928  10.516  10.259 -0.5025  0.4797  0.9951
    1ACE   HH32    3  10.858  10.596  10.238 -1.3102 -0.1617  1.1872
    1ACE   HH33    4  11.024  10.567  10.268 -0.5575  1.0570 -1.2765
    1ACE      C    5  10.883  10.449  10.389 -0.3445 -0.5960  0.0261
    1ACE      O    6  10.774  10.457  10.444 -0.4797 -0.0876 -0.0780
    2ALA      N    7  10.982  10.371  10.434  0.1816 -0.0713 -0.2956
    2ALA      H    8  11.068  10.352  10.384  0.6936 -0.7736  0.7965
    2ALA     CA    9  10.980  10.317  10.576  0.1278 -0.5069 -0.1392
    2ALA     HA   10  10.887  10.260  10.581  0.5933 -1.2398  0.2348
    2ALA     CB   11  11.086  10.212  10.596  0.1338 -0.0263 -0.2457
    2ALA    HB1   12  11.067  10.162  10.691  1.5728 -0.9811 -0.4347
    2ALA    HB2   13  11.077  10.144  10.512  0.5700 -2.5859  1.6230
    2ALA    HB3   14  11.183  10.260  10.586  1.2641 -2.1457 -0.0713
    2ALA      C   15  10.973  10.435  10.676  0.0660  0.3997 -0.3019
    2ALA      O   16  11.032  10.536  10.643 -0.1497 -0.4988  0.1359
    3ALA      N   17  10.932  10.421  10.801 -0.9443  0.3126 -0.5289
    3ALA      H   18  10.959  10.500  10.859 -0.8080  1.3045 -1.8981
    3ALA     CA   19  10.873  10.299  10.863 -0.5679  0.8070 -0.4109
    3ALA     HA   20  10.943  10.217  10.877 -0.7928  0.7613  0.5267
    3ALA     CB   21  10.827  10.323  11.006  0.3831 -0.2470 -0.4732
    3ALA    HB1   22  10.749  10.399  11.010  0.6107 -0.0651  2.4536
    3ALA    HB2   23  10.793  10.223  11.036  2.0532 -0.7149 -0.0317
    3ALA    HB3   24  10.919  10.350  11.058 -0.6262  0.1523  1.1814
    3ALA      C   25  10.754  10.238  10.786  0.1963  0.0072 -0.3203
    3ALA      O   26  10.749  10.118  10.788  0.8509 -0.4964 -0.1392
    4ALA      N   27  10.675  10.311  10.704  0.1540  0.4831 -0.5745
    4ALA      H   28  10.701  10.404  10.675  0.2015 -0.0420 -2.3488
    4ALA     CA   29  10.550  10.265  10.653 -0.8412  0.7419 -0.6800
    4ALA     HA   30  10.501  10.204  10.728  3.4349 -2.0875  0.1948
    4ALA     CB   31  10.471  10.391  10.617  0.2125  0.3057 -0.4945
    4ALA    HB1   32  10.526  10.462  10.555 -1.8611  1.7528 -0.7865
    4ALA    HB2   33  10.391  10.365  10.546  0.8878 -2.0610 -0.4727
    4ALA    HB3   34  10.431  10.447  10.701 -2.8868 -1.6922 -0.4573
    4ALA      C   35  10.558  10.166  10.530  0.6920 -0.5544 -0.1732
    4ALA      O   36  10.500  10.055  10.530  0.0341 -0.2147  0.4172
    5NME      N   37  10.621  10.213  10.420 -0.2763 -0.1729 -0.5781
    5NME      H   38  10.672  10.298  10.437 -0.6852  0.1172 -0.7883
    5NME    CH3   39  10.635  10.138  10.293 -0.5272 -0.4760 -0.1055
    5NME   HH31   40  10.712  10.181  10.229  0.1720 -1.9533 -0.2931
    5NME   HH32   41  10.655  10.031  10.301  0.8340 -0.2972 -0.8045
    5NME   HH33   42  10.548  10.136  10.227  0.9800 -2.5995 -2.2048
  20.91516  20.91516  20.91516
