Title
  129
    1AIB    CAY    1  20.976  20.261  21.711  0.3819 -0.2512  0.1238
    1AIB    HY1    2  21.069  20.238  21.655  1.7810 -1.0409  2.6084
    1AIB    HY2    3  20.927  20.162  21.724  0.3652 -0.2580 -0.0129
    1AIB    HY3    4  21.010  20.298  21.809 -0.8236 -2.2987  1.4089
    1AIB     CY    5  20.893  20.366  21.637  0.0697  0.3333  0.2197
    1AIB     OY    6  20.885  20.366  21.516  0.1585  0.0323 -0.6358
    1AIB      N    7  20.846  20.472  21.716  0.0864 -0.2866  0.5866
    1AIB     HN    8  20.848  20.444  21.812  2.0357 -1.0231  0.3767
    1AIB     CA    9  20.781  20.594  21.673  0.4811  0.2957 -0.3693
    1AIB    CB1   10  20.784  20.690  21.791 -0.4790  0.4476  0.0070
    1AIB   HB11   11  20.883  20.703  21.841 -0.2488 -0.4517 -0.1901
    1AIB   HB12   12  20.709  20.645  21.859 -0.1233  0.3405  0.3256
    1AIB   HB13   13  20.746  20.789  21.758  2.9231  1.9462  0.0579
    1AIB    CB2   14  20.633  20.562  21.645  0.1816 -0.4902  0.0080
    1AIB   HB21   15  20.630  20.484  21.565 -0.6508  0.8317 -1.3146
    1AIB   HB22   16  20.576  20.648  21.604 -2.3275 -0.2634  3.5379
    1AIB   HB23   17  20.592  20.516  21.737  0.7815  0.9730  1.0288
    1AIB      C   18  20.849  20.672  21.555 -0.5473 -0.2038  0.3465
    1AIB      O   19  20.788  20.699  21.454  0.0434  0.3461  0.6338
    2AIB      N   20  20.981  20.710  21.568  0.1067 -0.0993  0.0647
    2AIB     HN   21  21.013  20.708  21.662  1.1927  0.8857 -0.2397
    2AIB     CA   22  21.067  20.775  21.470  0.3603 -0.4712  1.2635
    2AIB    CB1   23  21.204  20.808  21.527 -0.6932  0.1668 -0.4961
    2AIB   HB11   24  21.255  20.864  21.446 -2.8661  1.2081 -1.2329
    2AIB   HB12   25  21.266  20.717  21.546 -0.3827 -0.1432 -2.6924
    2AIB   HB13   26  21.210  20.870  21.619  0.7938  1.5551 -1.4696
    2AIB    CB2   27  21.013  20.918  21.429 -0.0977 -0.0667  0.0707
    2AIB   HB21   28  20.915  20.909  21.377 -0.2736  0.2366  0.3360
    2AIB   HB22   29  21.087  20.957  21.356 -1.5081  2.4682 -0.1283
    2AIB   HB23   30  21.025  20.984  21.517 -0.7723  0.6124 -0.3311
    2AIB      C   31  21.090  20.686  21.345  0.0899  0.1536  0.3927
    2AIB      O   32  21.088  20.733  21.232 -0.1116  0.2375 -0.0318
    3AIB      N   33  21.116  20.561  21.376  0.4719  0.4228 -0.3929
    3AIB     HN   34  21.112  20.534  21.472 -0.0399  0.9482 -0.2528
    3AIB     CA   35  21.141  20.465  21.271 -0.0476 -0.0658 -0.2772
    3AIB    CB1   36  21.168  20.332  21.341 -0.3385  0.1087 -0.1726
    3AIB   HB11   37  21.206  20.269  21.257 -1.2393 -0.4494 -0.1889
    3AIB   HB12   38  21.073  20.291  21.380  0.8139  0.5890  3.5727
    3AIB   HB13   39  21.253  20.335  21.413 -0.1588  1.4309 -0.4082
    3AIB    CB2   40  21.261  20.489  21.173 -0.4208 -0.5209  0.1278
    3AIB   HB21   41  21.240  20.576  21.107  0.9776 -2.6045 -3.3297
    3AIB   HB22   42  21.284  20.407  21.103 -0.3610 -0.7895  0.4557
    3AIB   HB23   43  21.353  20.521  21.226  0.1854  3.2751 -2.7746
    3AIB      C   44  21.021  20.443  21.184  0.2726 -0.2366  0.3244
    3AIB      O   45  21.031  20.438  21.061 -0.7708 -0.4145  0.0334
    4AIB      N   46  20.906  20.410  21.237 -0.2333  0.0620 -0.2116
    4AIB     HN   47  20.891  20.398  21.335  1.1161 -1.6288 -0.1507
    4AIB     CA   48  20.784  20.391  21.162 -0.2585 -0.5204 -0.1674
    4AIB    CB1   49  20.664  20.395  21.264  0.2909 -0.6728  0.3881
    4AIB   HB11   50  20.656  20.495  21.311 -0.4882  0.4839 -2.0800
    4AIB   HB12   51  20.661  20.312  21.338 -1.8570 -0.0230  1.1029
    4AIB   HB13   52  20.568  20.371  21.213  0.9253 -0.5928 -0.9013
    4AIB    CB2   53  20.786  20.252  21.095 -0.1256 -0.0323  0.7271
    4AIB   HB21   54  20.875  20.219  21.036 -0.4826 -0.6998  0.5433
    4AIB   HB22   55  20.702  20.232  21.026  3.6422 -3.0461 -3.6470
    4AIB   HB23   56  20.782  20.180  21.179  2.0417 -4.4536 -2.4676
    4AIB      C   57  20.750  20.510  21.065  0.6654 -0.4830 -0.4103
    4AIB      O   58  20.724  20.486  20.950  0.5483 -0.1210 -0.1974
    5AIB      N   59  20.761  20.637  21.119  0.5608  0.2087  0.6962
    5AIB     HN   60  20.782  20.655  21.214 -0.3847  2.5219  0.5396
    5AIB     CA   61  20.735  20.763  21.047 -1.0285  0.7955  0.3012
    5AIB    CB1   62  20.773  20.877  21.139  0.2144 -0.4104  0.0681
    5AIB   HB11   63  20.882  20.876  21.161 -0.2612 -0.3301  2.7830
    5AIB   HB12   64  20.730  20.856  21.239  1.0364  3.1040  1.3151
    5AIB   HB13   65  20.750  20.981  21.107 -2.6752 -0.5970  1.1924
    5AIB    CB2   66  20.585  20.781  21.007  0.0967  0.4103  0.4133
    5AIB   HB21   67  20.547  20.696  20.946 -1.0964  2.3283 -1.7190
    5AIB   HB22   68  20.582  20.873  20.945  0.3192  1.9978  2.6531
    5AIB   HB23   69  20.507  20.805  21.083 -1.4358 -1.3864 -0.4918
    5AIB      C   70  20.817  20.771  20.917  0.3912 -0.0839  0.6136
    5AIB      O   71  20.761  20.790  20.808 -0.7483 -0.0791 -0.2657
    6AIB      N   72  20.951  20.746  20.922  0.2828  0.9461  0.1844
    6AIB     HN   73  20.973  20.737  21.019 -0.5685  0.5160  0.3587
    6AIB     CA   74  21.042  20.743  20.805 -0.1352  0.4423 -0.4609
    6AIB    CB1   75  21.183  20.709  20.854  0.1688  0.0839 -0.0911
    6AIB   HB11   76  21.177  20.609  20.902  1.5436 -0.2906 -0.6394
    6AIB   HB12   77  21.228  20.782  20.923 -0.6411  0.4406  0.0817
    6AIB   HB13   78  21.249  20.699  20.765 -0.2990  0.7324 -0.5238
    6AIB    CB2   79  21.055  20.885  20.746 -0.0329 -0.1156 -0.5889
    6AIB   HB21   80  20.958  20.909  20.698  0.5270 -0.3766 -1.9102
    6AIB   HB22   81  21.126  20.883  20.660  1.5487 -2.5575  0.6906
    6AIB   HB23   82  21.072  20.965  20.821 -1.0143 -1.4306  1.1091
    6AIB      C   83  20.996  20.644  20.690  0.9269  0.2700  0.5895
    6AIB      O   84  20.980  20.676  20.572 -0.2183  0.4913 -0.0350
    7AIB      N   85  20.961  20.517  20.729  0.8556 -0.7957 -0.5662
    7AIB     HN   86  20.961  20.509  20.829  1.8951  1.3604 -0.3250
    7AIB     CA   87  20.923  20.404  20.649 -0.2565  0.2431 -0.3945
    7AIB    CB1   88  20.897  20.283  20.739  0.7598 -0.1254 -0.2816
    7AIB   HB11   89  20.976  20.281  20.817  0.9749  1.1088 -0.4379
    7AIB   HB12   90  20.894  20.188  20.682 -0.0214  0.0370 -0.5301
    7AIB   HB13   91  20.804  20.285  20.800  0.1374 -2.3070 -1.0692
    7AIB    CB2   92  21.038  20.358  20.549  0.5855  0.4971 -0.1122
    7AIB   HB21   93  21.021  20.273  20.480 -0.1926  0.7494 -0.2401
    7AIB   HB22   94  21.130  20.336  20.608  0.4348 -1.9304 -0.6968
    7AIB   HB23   95  21.069  20.444  20.485  0.5108  0.1746 -0.5879
    7AIB      C   96  20.793  20.429  20.574 -0.2933  0.2915  0.1176
    7AIB      O   97  20.785  20.379  20.458  0.2230  0.1918  0.7798
    8AIB      N   98  20.693  20.494  20.632 -0.2303 -0.4869  0.2584
    8AIB     HN   99  20.706  20.530  20.724  0.2650 -1.6990  0.6762
    8AIB     CA  100  20.561  20.526  20.572 -0.1068  0.2593  0.3036
    8AIB    CB1  101  20.481  20.599  20.683  0.8245  0.0264 -0.6380
    8AIB   HB11  102  20.542  20.684  20.721  0.8715  0.2782 -1.2649
    8AIB   HB12  103  20.468  20.529  20.769  0.7292 -1.2956 -1.6907
    8AIB   HB13  104  20.384  20.641  20.648 -0.8229 -0.6454  2.6847
    8AIB    CB2  105  20.481  20.394  20.532  0.3740 -0.6457 -0.1484
    8AIB   HB21  106  20.491  20.328  20.620  0.4987  1.0072  1.1154
    8AIB   HB22  107  20.516  20.350  20.436  1.8484 -1.7245  0.8610
    8AIB   HB23  108  20.375  20.425  20.524 -0.3515 -1.9200  3.0909
    8AIB      C  109  20.572  20.618  20.450 -0.1992  0.2684 -0.0106
    8AIB      O  110  20.501  20.605  20.354  0.0574  0.4622 -0.0410
    9AIB      N  111  20.672  20.714  20.458  0.2289 -0.1833 -1.1259
    9AIB     HN  112  20.729  20.717  20.540 -1.6638  1.7661  0.2261
    9AIB     CA  113  20.707  20.821  20.372  0.1739 -0.0933  0.3110
    9AIB    CB1  114  20.764  20.931  20.460 -0.1979  0.0676 -0.1773
    9AIB   HB11  115  20.870  20.913  20.488  0.3993 -1.1539 -2.8439
    9AIB   HB12  116  20.710  20.935  20.557  0.3359 -1.8450  0.2584
    9AIB   HB13  117  20.761  21.032  20.413  1.5785  0.6311  0.8235
    9AIB    CB2  118  20.579  20.876  20.300 -0.2288  0.4991  0.3633
    9AIB   HB21  119  20.585  20.972  20.245  0.4400  0.5981  0.5965
    9AIB   HB22  120  20.505  20.883  20.383 -0.8795 -2.3563  0.1269
    9AIB   HB23  121  20.551  20.802  20.223  5.5103  0.3466 -2.0538
    9AIB      C  122  20.816  20.785  20.267  0.3508 -0.6188 -0.1984
    9AIB      O  123  20.830  20.853  20.169 -0.3705  0.1100  0.1232
    9AIB     NT  124  20.893  20.676  20.295  0.7508 -1.2079 -0.2030
    9AIB    HNT  125  20.874  20.620  20.374 -1.2895 -0.6308 -0.2250
    9AIB    CAT  126  20.998  20.639  20.203 -0.6275 -0.1019  0.7717
    9AIB    HT1  127  21.048  20.550  20.247 -1.9103 -1.3256 -0.1403
    9AIB    HT2  128  21.071  20.716  20.172 -1.4343 -0.3647 -2.0206
    9AIB    HT3  129  20.955  20.611  20.104 -1.2204  0.9842  0.7035
  42.09246  42.09246  42.09246
