Protein
   42
    1ACE   HH31    1   6.173   9.565  17.706 -0.9438  0.5119 -0.7508
    1ACE    CH3    2   6.167   9.674  17.713  0.1520  0.5525 -0.3730
    1ACE   HH32    3   6.265   9.722  17.711  1.3958 -1.8526 -1.4555
    1ACE   HH33    4   6.114   9.692  17.806 -0.9698 -2.5010 -0.2996
    1ACE      C    5   6.089   9.723  17.594  0.2498 -0.8799 -0.7238
    1ACE      O    6   6.023   9.827  17.602  0.4250  0.6254 -0.3463
    2ALA      N    7   6.102   9.654  17.478 -0.6465 -0.0137 -0.7292
    2ALA      H    8   6.156   9.569  17.481  0.6189  0.7885  0.1439
    2ALA     CA    9   6.029   9.683  17.361 -0.3552 -0.4111 -0.0133
    2ALA     HA   10   5.931   9.724  17.389  0.1583 -1.2709  3.3920
    2ALA     CB   11   6.121   9.780  17.276 -0.0301 -0.2214  0.0247
    2ALA    HB1   12   6.068   9.840  17.202 -0.7804  1.0278  1.5356
    2ALA    HB2   13   6.177   9.847  17.341  0.4229 -1.3753  0.8738
    2ALA    HB3   14   6.194   9.722  17.218  0.4784  1.8281 -1.4875
    2ALA      C   15   6.014   9.547  17.287 -0.5381 -0.3078  0.4484
    2ALA      O   16   6.050   9.441  17.340  0.2038 -0.2895 -0.1751
    3ALA      N   17   5.954   9.541  17.165 -0.2575  0.0094  0.8987
    3ALA      H   18   5.927   9.446  17.144  5.2852 -1.5172 -1.2036
    3ALA     CA   19   5.911   9.654  17.083  0.4262  0.3561 -0.0153
    3ALA     HA   20   5.896   9.745  17.142  1.3481  0.2329  0.4283
    3ALA     CB   21   6.018   9.675  16.972 -0.0124  0.1910  0.2702
    3ALA    HB1   22   6.027   9.579  16.920  0.5948 -0.4541  1.5124
    3ALA    HB2   23   5.980   9.738  16.892 -2.1922  1.1695  1.9421
    3ALA    HB3   24   6.114   9.697  17.019 -1.0183 -0.7165  3.0223
    3ALA      C   25   5.772   9.619  17.022  0.1228 -0.7002  0.4782
    3ALA      O   26   5.663   9.634  17.081 -0.0081 -0.3403  0.2141
    4ALA      N   27   5.759   9.583  16.891  0.2542 -0.1488 -0.0747
    4ALA      H   28   5.845   9.577  16.838 -0.6246 -0.0672 -1.5874
    4ALA     CA   29   5.632   9.569  16.817 -0.1314  0.1192  0.6100
    4ALA     HA   30   5.551   9.632  16.855 -0.8185  1.5629 -2.8586
    4ALA     CB   31   5.656   9.617  16.668 -0.0899  0.1282 -0.0219
    4ALA    HB1   32   5.751   9.573  16.638  0.4050  2.1440 -1.6419
    4ALA    HB2   33   5.574   9.594  16.601 -0.2516  0.2339  0.1359
    4ALA    HB3   34   5.656   9.726  16.678  1.0208  0.1688 -0.1887
    4ALA      C   35   5.587   9.422  16.820  0.1434  0.3726  0.6365
    4ALA      O   36   5.594   9.357  16.714  0.4846 -0.3623 -0.0826
    5NME      N   37   5.563   9.363  16.938  0.5614 -0.2711 -0.0580
    5NME      H   38   5.590   9.414  17.021  0.3629 -0.1928 -0.0375
    5NME    CH3   39   5.502   9.225  16.936  0.1339  0.3206  0.5418
    5NME   HH31   40   5.414   9.227  16.871 -0.6062  2.0929  1.4950
    5NME   HH32   41   5.565   9.154  16.883  1.4155  0.4583  1.8202
    5NME   HH33   42   5.472   9.206  17.039  1.8176 -0.0197  0.9902
  20.91516  20.91516  20.91516
