Protein
   32
    1ACE   HH31    1  15.166   8.451  10.147  0.2218 -2.1248  0.1563
    1ACE    CH3    2  15.060   8.468  10.169  0.4356  0.2153 -0.3169
    1ACE   HH32    3  15.023   8.520  10.081  1.3007  0.2391 -0.6879
    1ACE   HH33    4  15.041   8.532  10.255 -0.1823 -2.0593  1.3457
    1ACE      C    5  14.977   8.337  10.165 -0.2535  0.5265 -0.6322
    1ACE      O    6  15.037   8.233  10.156 -0.0316  0.7766 -0.4941
    2ALA      N    7  14.846   8.352  10.169  0.1995  0.2683  0.2049
    2ALA      H    8  14.823   8.449  10.180  1.2569  0.4463  0.9292
    2ALA     CA    9  14.733   8.261  10.151  0.2599 -0.3546  0.4395
    2ALA     HA   10  14.658   8.293  10.224 -1.4092 -1.3267 -0.7516
    2ALA     CB   11  14.661   8.293  10.013 -0.1158  0.4309 -0.1374
    2ALA    HB1   12  14.730   8.295   9.929 -0.3908  1.3927 -0.3633
    2ALA    HB2   13  14.573   8.228  10.005 -0.4994  0.4976  2.5534
    2ALA    HB3   14  14.624   8.396  10.017  0.4555  0.6281  0.5525
    2ALA      C   15  14.747   8.109  10.166  0.0534 -0.1163  0.1167
    2ALA      O   16  14.660   8.035  10.120  0.1743 -0.4186  0.0210
    3ALA      N   17  14.854   8.058  10.220 -0.6074 -0.5433 -0.5543
    3ALA      H   18  14.923   8.119  10.260 -0.9092 -0.7683  0.3518
    3ALA     CA   19  14.881   7.911  10.248 -0.1729 -0.1868  0.0195
    3ALA     HA   20  14.792   7.854  10.276 -0.1487 -0.8072 -1.1204
    3ALA     CB   21  14.912   7.850  10.115  0.4447 -0.8206 -0.3226
    3ALA    HB1   22  14.815   7.848  10.065  1.5387 -1.9491 -2.5248
    3ALA    HB2   23  14.994   7.910  10.075  0.2641  1.6464  2.6934
    3ALA    HB3   24  14.945   7.747  10.124 -2.7476 -1.7875  2.1813
    3ALA      C   25  14.981   7.898  10.362  0.2567 -0.0449 -0.2119
    3ALA      O   26  14.941   7.907  10.477 -0.0585  0.4806 -0.4106
    4NME      N   27  15.104   7.861  10.332  0.5460 -0.1259  0.6615
    4NME      H   28  15.119   7.844  10.233  0.2885  0.5161  0.4989
    4NME    CH3   29  15.216   7.870  10.421  0.6605  0.0878  0.1522
    4NME   HH31   30  15.184   7.855  10.524  2.3071  0.8226  0.8190
    4NME   HH32   31  15.283   7.787  10.398 -0.1016 -0.3438 -0.5777
    4NME   HH33   32  15.281   7.958  10.420  2.1311 -0.9342  0.8478
  20.99041  20.99041  20.99041
