Protein
   42
    1ACE   HH31    1   9.565   9.369  10.205  0.6989 -2.3706 -0.4089
    1ACE    CH3    2   9.597   9.394  10.306 -0.7240 -0.0066 -0.4578
    1ACE   HH32    3   9.631   9.306  10.361  1.7509  0.9223 -0.3224
    1ACE   HH33    4   9.518   9.437  10.367 -0.0930  1.9031 -0.8909
    1ACE      C    5   9.706   9.500  10.317  0.4632  0.2561  0.7131
    1ACE      O    6   9.822   9.465  10.350 -0.1116  0.1107 -0.4439
    2ALA      N    7   9.663   9.622  10.309  0.1460  0.9228 -0.1979
    2ALA      H    8   9.563   9.635  10.307  0.1631  1.7598  1.7041
    2ALA     CA    9   9.754   9.739  10.287  0.3418  0.0918 -0.2148
    2ALA     HA   10   9.856   9.707  10.304 -0.0158 -0.3649  1.2335
    2ALA     CB   11   9.751   9.786  10.142  0.3066 -0.2401 -0.0999
    2ALA    HB1   12   9.825   9.863  10.121 -0.5559  0.9439  1.0448
    2ALA    HB2   13   9.779   9.699  10.083  0.4886 -1.3349  1.5513
    2ALA    HB3   14   9.652   9.825  10.114 -0.3279 -1.3486  0.5323
    2ALA      C   15   9.707   9.842  10.394 -0.4903 -0.0704  0.9639
    2ALA      O   16   9.646   9.944  10.363  0.1701 -0.2675  0.2930
    3ALA      N   17   9.733   9.824  10.522 -0.0280  1.0526  0.3023
    3ALA      H   18   9.697   9.903  10.574 -0.2387  1.1371  0.0292
    3ALA     CA   19   9.806   9.718  10.597 -0.5290  0.1147 -0.5977
    3ALA     HA   20   9.777   9.618  10.564 -0.2931 -0.3816  0.6341
    3ALA     CB   21   9.958   9.734  10.570  0.4210  0.4860 -0.5293
    3ALA    HB1   22  10.000   9.642  10.613  0.1373 -0.6447 -2.5508
    3ALA    HB2   23   9.989   9.746  10.466 -1.7827  1.7218 -1.0772
    3ALA    HB3   24   9.994   9.825  10.617 -0.3193  1.2629 -1.4252
    3ALA      C   25   9.761   9.717  10.740  0.2719  0.1583 -1.4871
    3ALA      O   26   9.651   9.678  10.772  0.0083  0.0684 -0.3457
    4ALA      N   27   9.846   9.761  10.835  0.1179  0.7045  0.3546
    4ALA      H   28   9.935   9.791  10.800  0.1102 -1.2399 -1.5764
    4ALA     CA   29   9.815   9.768  10.975 -0.2545 -0.0369 -0.6865
    4ALA     HA   30   9.900   9.825  11.012 -0.5213  1.9490 -2.8358
    4ALA     CB   31   9.687   9.852  11.007 -0.4030 -0.8257  0.5684
    4ALA    HB1   32   9.669   9.929  10.932  0.2391  0.7523  1.9654
    4ALA    HB2   33   9.597   9.793  11.021 -0.3790 -1.1226 -0.4517
    4ALA    HB3   34   9.701   9.907  11.101 -1.2541  2.1840 -0.9423
    4ALA      C   35   9.834   9.629  11.041 -0.1825  0.5662 -0.2968
    4ALA      O   36   9.764   9.595  11.135 -0.2411  0.0145 -0.0386
    5NME      N   37   9.933   9.548  10.988  0.7454 -0.1275 -0.2355
    5NME      H   38   9.975   9.573  10.899  0.1329 -1.6664 -1.0023
    5NME    CH3   39   9.976   9.415  11.040  0.3142  0.2751 -0.3100
    5NME   HH31   40  10.016   9.346  10.966 -2.4620 -2.0625  0.2090
    5NME   HH32   41  10.041   9.430  11.126 -0.6163 -0.8512  0.6100
    5NME   HH33   42   9.882   9.374  11.075  0.5131 -0.4659 -0.6251
  20.91516  20.91516  20.91516
