Protein
   22
    1ACE   HH31    1   7.380   1.790   2.659  0.5963  0.8749 -0.3625
    1ACE    CH3    2   7.282   1.820   2.622  0.5601  0.6724 -0.4373
    1ACE   HH32    3   7.205   1.768   2.681  1.3398  1.5683  1.4612
    1ACE   HH33    4   7.281   1.807   2.514  2.7019 -2.9047 -0.1833
    1ACE      C    5   7.285   1.959   2.673  0.0665 -0.4107 -0.9414
    1ACE      O    6   7.311   2.052   2.597  1.0580 -0.5234  0.2809
    2ALA      N    7   7.262   1.984   2.807 -0.0183  0.4989 -0.3665
    2ALA      H    8   7.211   1.916   2.861 -0.0656 -0.2378 -1.3123
    2ALA     CA    9   7.285   2.110   2.873 -0.1436  0.1312  0.3606
    2ALA     HA   10   7.264   2.097   2.979  2.3167  1.2444  1.0488
    2ALA     CB   11   7.441   2.142   2.879 -0.1365 -0.6103  0.0607
    2ALA    HB1   12   7.470   2.194   2.788  0.0127 -0.8669 -0.0440
    2ALA    HB2   13   7.451   2.205   2.968  0.2770 -1.4184  0.6045
    2ALA    HB3   14   7.499   2.052   2.897  1.4722  0.1231 -1.1509
    2ALA      C   15   7.203   2.228   2.809 -0.3010 -0.2985 -0.5153
    2ALA      O   16   7.092   2.206   2.767  0.2465 -0.3337 -0.9022
    3NME      N   17   7.257   2.353   2.801 -0.6215  0.5604 -0.4381
    3NME      H   18   7.354   2.353   2.827 -0.3753  2.5511 -1.1708
    3NME    CH3   19   7.198   2.485   2.767  0.4961  0.7083 -0.5309
    3NME   HH31   20   7.255   2.533   2.687  2.1236 -0.1523  0.0335
    3NME   HH32   21   7.095   2.479   2.733 -0.2923  1.5189  1.5737
    3NME   HH33   22   7.197   2.537   2.862 -0.0058 -2.2330  1.2029
  10.72160  10.72160  10.72160
