Protein
   42
    1ACE   HH31    1   9.474  13.315  10.956 -0.9209  1.9354 -0.9058
    1ACE    CH3    2   9.384  13.256  10.967  0.3608  0.0797  0.2142
    1ACE   HH32    3   9.302  13.317  10.929  1.9155  1.1953 -1.5536
    1ACE   HH33    4   9.372  13.230  11.072  0.0504 -0.3374  0.0791
    1ACE      C    5   9.394  13.125  10.889  0.3753  0.4608 -0.0170
    1ACE      O    6   9.311  13.035  10.889  0.1624 -0.1444 -0.4041
    2ALA      N    7   9.509  13.101  10.822 -0.2708  0.0277  0.5482
    2ALA      H    8   9.569  13.178  10.795 -0.6811 -0.5542 -2.2886
    2ALA     CA    9   9.551  12.989  10.738  0.4236  0.0113  0.4172
    2ALA     HA   10   9.477  12.973  10.660  2.3336 -1.7432 -1.1282
    2ALA     CB   11   9.675  13.042  10.662 -0.3876  0.5574 -0.8366
    2ALA    HB1   12   9.749  13.086  10.730 -0.3739 -0.2345 -0.3330
    2ALA    HB2   13   9.740  12.969  10.613  3.3654  1.9749  1.5860
    2ALA    HB3   14   9.637  13.120  10.596 -1.4887  1.5782  0.9491
    2ALA      C   15   9.581  12.864  10.824 -0.3735 -0.0840  0.1620
    2ALA      O   16   9.688  12.865  10.890  0.5487  0.4878  0.1569
    3ALA      N   17   9.506  12.758  10.826 -0.5518  0.1055 -0.1739
    3ALA      H   18   9.539  12.684  10.887  0.4314 -1.1118 -2.0910
    3ALA     CA   19   9.386  12.743  10.741  0.0693  0.1408 -0.3772
    3ALA     HA   20   9.344  12.838  10.709 -0.5391  0.4643  1.3175
    3ALA     CB   21   9.427  12.672  10.610 -0.3703 -0.1064 -0.2200
    3ALA    HB1   22   9.442  12.567  10.632 -1.6374 -0.3759 -0.5941
    3ALA    HB2   23   9.348  12.678  10.536 -0.8174  3.2056  0.3659
    3ALA    HB3   24   9.513  12.726  10.570 -0.7780  0.8670  0.1738
    3ALA      C   25   9.269  12.668  10.816  0.1414  0.0967 -0.1430
    3ALA      O   26   9.232  12.554  10.773 -0.0711  0.6769 -0.5154
    4ALA      N   27   9.215  12.737  10.920 -0.2480  0.1784  0.6082
    4ALA      H   28   9.249  12.831  10.931  0.4974  0.1878 -1.4133
    4ALA     CA   29   9.074  12.711  10.959 -0.2534 -0.6883 -0.6510
    4ALA     HA   30   9.080  12.627  11.029  0.5922  0.9080  1.2894
    4ALA     CB   31   9.023  12.836  11.033 -0.2519 -0.0309 -0.8119
    4ALA    HB1   32   8.941  12.814  11.101  0.8217 -1.5693  0.0373
    4ALA    HB2   33   9.101  12.871  11.099 -1.4226  0.3605  0.4259
    4ALA    HB3   34   8.996  12.913  10.960  0.1250  0.5262 -0.3805
    4ALA      C   35   8.983  12.661  10.848 -0.3407 -0.9139  0.6408
    4ALA      O   36   8.958  12.736  10.752  0.5594  0.6497 -0.3710
    5NME      N   37   8.932  12.540  10.863  0.6197  0.2001  0.3500
    5NME      H   38   8.959  12.489  10.947  1.3217 -1.4390 -0.8014
    5NME    CH3   39   8.862  12.458  10.756  0.1922 -0.4284  0.4467
    5NME   HH31   40   8.760  12.497  10.755  0.3823  0.2717  2.2909
    5NME   HH32   41   8.919  12.468  10.664  3.9116  0.8601  2.6842
    5NME   HH33   42   8.850  12.354  10.786 -1.9618 -0.5219 -0.5919
  20.91516  20.91516  20.91516
