Protein
   42
    1ACE   HH31    1  10.370  10.673  11.751  0.9278  1.2740  0.5396
    1ACE    CH3    2  10.392  10.611  11.664 -0.0516 -0.2804  1.3676
    1ACE   HH32    3  10.442  10.524  11.707 -1.9418 -2.5080 -0.6502
    1ACE   HH33    4  10.454  10.670  11.597  0.3869 -0.6058  1.4775
    1ACE      C    5  10.261  10.562  11.602 -0.2672 -0.7133  0.2406
    1ACE      O    6  10.218  10.454  11.640 -0.2377  0.0588 -0.2392
    2ALA      N    7  10.200  10.641  11.515  0.1106 -0.4361 -0.2139
    2ALA      H    8  10.249  10.728  11.501  1.1416 -0.4065  2.6885
    2ALA     CA    9  10.075  10.632  11.444  0.5435  0.2382  0.3592
    2ALA     HA   10  10.068  10.723  11.385  1.1508  0.0095 -0.0804
    2ALA     CB   11  10.095  10.524  11.338  0.1417 -0.0378  0.4079
    2ALA    HB1   12  10.008  10.524  11.273 -0.7783  1.7381  1.5422
    2ALA    HB2   13  10.186  10.548  11.284 -0.2856 -0.7269 -0.6369
    2ALA    HB3   14  10.116  10.424  11.378  0.4158 -0.6536 -1.2048
    2ALA      C   15   9.944  10.601  11.530 -0.7271 -0.5764 -0.3208
    2ALA      O   16   9.924  10.495  11.585 -0.2316  0.8744  0.2014
    3ALA      N   17   9.845  10.685  11.537  0.5492 -0.8310  0.1946
    3ALA      H   18   9.767  10.657  11.596  0.7758  1.2194  1.5746
    3ALA     CA   19   9.852  10.830  11.512  0.7199 -0.6332 -0.6403
    3ALA     HA   20   9.755  10.868  11.545  0.7384 -0.2202 -1.0448
    3ALA     CB   21   9.959  10.898  11.607  0.1986 -0.1925 -0.5550
    3ALA    HB1   22  10.060  10.869  11.576  0.5095 -2.6566  2.3182
    3ALA    HB2   23   9.953  11.007  11.603 -3.0030 -0.2431  0.2108
    3ALA    HB3   24   9.938  10.877  11.711  1.3627 -1.2176 -0.4927
    3ALA      C   25   9.851  10.879  11.364 -0.8599 -0.3344 -0.3542
    3ALA      O   26   9.912  10.983  11.330 -0.0274  0.2758 -0.1021
    4ALA      N   27   9.778  10.811  11.271 -0.0950  0.7660 -0.6407
    4ALA      H   28   9.741  10.724  11.305 -1.2810  0.8220 -1.6665
    4ALA     CA   29   9.799  10.813  11.125  0.5716 -0.0767 -0.8286
    4ALA     HA   30   9.710  10.765  11.084  0.4554 -0.0212 -0.6416
    4ALA     CB   31   9.782  10.949  11.062  0.4465 -0.4542 -0.5108
    4ALA    HB1   32   9.700  11.004  11.108  2.1485  1.3471  0.5024
    4ALA    HB2   33   9.870  11.013  11.071  1.1478 -1.2405 -1.3676
    4ALA    HB3   34   9.765  10.956  10.954 -0.0119  0.6964 -0.3702
    4ALA      C   35   9.924  10.740  11.078 -0.9197  0.2951  0.2452
    4ALA      O   36  10.032  10.759  11.131 -0.1284 -0.0796 -0.2073
    5NME      N   37   9.911  10.669  10.964  0.0580 -0.0082 -0.6271
    5NME      H   38   9.816  10.674  10.930 -0.7923  2.4127  1.7842
    5NME    CH3   39  10.010  10.590  10.894 -0.4868 -0.4725 -0.0046
    5NME   HH31   40  10.105  10.631  10.929 -1.6188 -0.1630  3.0265
    5NME   HH32   41   9.999  10.486  10.925  0.3611 -0.9630 -1.2784
    5NME   HH33   42  10.001  10.604  10.787 -0.9852  0.5468  0.1546
  20.91516  20.91516  20.91516
