Protein
   32
    1ACE   HH31    1  11.352  10.097   9.182 -0.0721  1.3864  0.9659
    1ACE    CH3    2  11.437  10.059   9.240 -0.1316 -0.2057  0.0612
    1ACE   HH32    3  11.463   9.960   9.204 -0.9390 -1.2022  2.0663
    1ACE   HH33    4  11.388  10.043   9.336 -1.1607 -2.8170 -0.8044
    1ACE      C    5  11.543  10.164   9.250 -0.5986 -0.2977  0.1891
    1ACE      O    6  11.569  10.219   9.355  1.1534 -0.1109 -0.1187
    2ALA      N    7  11.617  10.177   9.144  0.1801  0.3193  0.1561
    2ALA      H    8  11.562  10.137   9.069 -0.4493  0.3043  0.6292
    2ALA     CA    9  11.735  10.256   9.098 -0.3214  0.2185  0.2454
    2ALA     HA   10  11.806  10.183   9.059 -0.9594 -0.7955  0.9199
    2ALA     CB   11  11.680  10.338   8.984  0.1993  0.2015 -0.0600
    2ALA    HB1   12  11.599  10.398   9.025  1.5593  0.5527  2.2366
    2ALA    HB2   13  11.749  10.415   8.949 -1.5623  0.8163 -2.4743
    2ALA    HB3   14  11.651  10.286   8.892 -3.5193  1.6457  0.1326
    2ALA      C   15  11.828  10.339   9.193 -0.4414  0.2513  0.6204
    2ALA      O   16  11.923  10.400   9.139 -0.1294  0.8543  0.0749
    3ALA      N   17  11.808  10.342   9.320 -0.3004  0.4322  0.0864
    3ALA      H   18  11.721  10.305   9.356  0.3127 -1.3384 -0.1473
    3ALA     CA   19  11.898  10.412   9.415 -0.0846  0.2986 -0.0088
    3ALA     HA   20  11.983  10.456   9.361 -0.6040 -0.4093 -1.4459
    3ALA     CB   21  11.820  10.524   9.480 -0.4339  0.3796  0.5052
    3ALA    HB1   22  11.880  10.585   9.547  1.7990  0.1732 -1.1961
    3ALA    HB2   23  11.787  10.588   9.398 -0.9594  1.9835  1.9030
    3ALA    HB3   24  11.731  10.487   9.531  0.7090  0.0170  2.3049
    3ALA      C   25  11.954  10.318   9.518  0.3071  0.3145 -0.1155
    3ALA      O   26  12.078  10.293   9.519  0.2046 -0.6416 -0.4836
    4NME      N   27  11.869  10.263   9.602  0.3226 -0.8811 -0.1203
    4NME      H   28  11.773  10.293   9.595  0.6365  0.2616  0.2899
    4NME    CH3   29  11.896  10.181   9.718  0.0469  0.1445 -0.1088
    4NME   HH31   30  11.979  10.210   9.783 -0.2655  0.7741  0.0126
    4NME   HH32   31  11.809  10.174   9.783  1.3244  0.4283  1.7320
    4NME   HH33   32  11.908  10.079   9.684 -0.0511 -0.1868  0.8074
  20.99041  20.99041  20.99041
