Protein
   42
    1ACE   HH31    1  11.429   8.435   6.170  0.6166 -0.8785  0.1128
    1ACE    CH3    2  11.425   8.330   6.196 -0.2835 -0.8579  0.0592
    1ACE   HH32    3  11.375   8.283   6.111 -1.0450 -0.4480  0.2606
    1ACE   HH33    4  11.368   8.318   6.289  0.0201  0.9832  0.5168
    1ACE      C    5  11.563   8.271   6.202  0.0178 -0.1274 -0.4494
    1ACE      O    6  11.580   8.150   6.190 -0.4271  0.1902 -0.2637
    2ALA      N    7  11.663   8.349   6.236 -0.0564  0.6516 -0.0111
    2ALA      H    8  11.644   8.446   6.255  1.6340  0.9723  0.2376
    2ALA     CA    9  11.795   8.303   6.284  0.6037  0.5894  0.1761
    2ALA     HA   10  11.816   8.219   6.218 -0.9867  1.3218 -1.3537
    2ALA     CB   11  11.891   8.418   6.255  0.4959  0.6832 -0.9495
    2ALA    HB1   12  11.872   8.506   6.317  3.1223  2.9685 -3.1563
    2ALA    HB2   13  11.995   8.390   6.268  0.5565 -1.0779 -4.0995
    2ALA    HB3   14  11.873   8.444   6.151 -2.1886 -1.9932 -1.3079
    2ALA      C   15  11.793   8.249   6.430  0.3777 -0.0767 -0.3036
    2ALA      O   16  11.882   8.277   6.509 -0.3012  0.9755 -0.3154
    3ALA      N   17  11.683   8.182   6.461  0.1972  0.2155  0.1123
    3ALA      H   18  11.632   8.158   6.377  3.1071 -1.1602 -1.3770
    3ALA     CA   19  11.672   8.115   6.586  0.7160 -0.0544 -0.4678
    3ALA     HA   20  11.766   8.096   6.638  0.6638 -0.2395 -0.4349
    3ALA     CB   21  11.586   8.203   6.693 -0.5838 -0.2124  0.2474
    3ALA    HB1   22  11.630   8.302   6.707  0.9589 -0.5921 -1.4244
    3ALA    HB2   23  11.483   8.211   6.659 -0.8649  0.0210  1.1440
    3ALA    HB3   24  11.577   8.153   6.789 -2.7305  0.4388  0.4178
    3ALA      C   25  11.605   7.976   6.571 -0.4669  0.4775  0.2860
    3ALA      O   26  11.488   7.964   6.544 -0.3762  0.2684 -0.4882
    4ALA      N   27  11.685   7.872   6.590  0.8786 -0.1040 -0.1947
    4ALA      H   28  11.783   7.891   6.603  0.5348  0.7107  1.3776
    4ALA     CA   29  11.641   7.734   6.582  0.6544  0.0071  0.1918
    4ALA     HA   30  11.586   7.716   6.490 -2.7203  0.1058  2.0631
    4ALA     CB   31  11.767   7.653   6.574 -0.4357  0.2099  0.0266
    4ALA    HB1   32  11.847   7.679   6.643 -0.7513 -0.2889  0.5909
    4ALA    HB2   33  11.736   7.548   6.574  0.1657 -0.0310 -2.6188
    4ALA    HB3   34  11.818   7.675   6.480  1.4108  0.6966  1.0876
    4ALA      C   35  11.552   7.684   6.695  0.3889 -0.9479 -0.1354
    4ALA      O   36  11.591   7.592   6.770 -0.3391  0.0494 -0.3136
    5NME      N   37  11.438   7.748   6.717  0.1793 -0.0494  0.2714
    5NME      H   38  11.424   7.828   6.657 -2.1645 -0.5197  0.1210
    5NME    CH3   39  11.330   7.718   6.814  0.2866  0.3926  0.3784
    5NME   HH31   40  11.369   7.648   6.888 -1.0065  1.1748  1.8826
    5NME   HH32   41  11.282   7.802   6.864  1.1943  1.2168 -0.1413
    5NME   HH33   42  11.256   7.651   6.771  0.5144  0.3918 -0.0225
  20.91516  20.91516  20.91516
