Protein
   32
    1ACE   HH31    1  12.571  15.352  13.730 -0.8156  0.3535 -0.0197
    1ACE    CH3    2  12.590  15.248  13.755  0.2697  0.5037 -0.1648
    1ACE   HH32    3  12.495  15.194  13.757  0.6183 -0.1305  0.0476
    1ACE   HH33    4  12.635  15.245  13.855 -0.2541 -0.8908  0.0530
    1ACE      C    5  12.683  15.181  13.660  0.1563 -0.4987  0.4455
    1ACE      O    6  12.645  15.085  13.595 -0.0994 -0.3812 -0.4700
    2ALA      N    7  12.807  15.232  13.653 -0.3664 -0.4630  0.1640
    2ALA      H    8  12.832  15.317  13.703  0.3756 -1.4910  1.6252
    2ALA     CA    9  12.913  15.191  13.556  0.3042 -0.7089  0.1112
    2ALA     HA   10  12.877  15.122  13.480 -1.1481 -0.3401  0.4369
    2ALA     CB   11  12.974  15.317  13.483  0.1505  0.0399 -0.3755
    2ALA    HB1   12  13.032  15.375  13.553  0.6509 -0.3170 -0.4889
    2ALA    HB2   13  13.040  15.286  13.402  3.7028  0.9604  1.9679
    2ALA    HB3   14  12.895  15.373  13.432 -0.4698 -0.1366  0.3841
    2ALA      C   15  13.020  15.105  13.627 -0.1263  0.0414  0.4474
    2ALA      O   16  13.135  15.090  13.581 -0.1629 -0.4909  0.1819
    3ALA      N   17  12.981  15.054  13.744  0.8826  0.2335 -0.0450
    3ALA      H   18  12.881  15.061  13.754  0.7871  1.7896 -1.6387
    3ALA     CA   19  13.068  14.978  13.841  0.1101  0.1853  0.4575
    3ALA     HA   20  13.160  14.951  13.789  0.6732  0.9360  1.0403
    3ALA     CB   21  13.105  15.058  13.964 -0.2519 -0.9085 -0.5672
    3ALA    HB1   22  13.189  15.013  14.018 -0.1462  0.7352  0.7513
    3ALA    HB2   23  13.124  15.161  13.935  1.7390 -0.6655  1.3834
    3ALA    HB3   24  13.023  15.061  14.035  1.5204 -1.0633  1.6119
    3ALA      C   25  13.003  14.844  13.881 -0.1340 -0.4239  0.6340
    3ALA      O   26  13.004  14.809  14.000 -0.1349  0.3410  0.3532
    4NME      N   27  12.944  14.773  13.789 -0.4237  0.3094  0.0004
    4NME      H   28  12.957  14.799  13.693  0.0917 -1.9145 -0.5977
    4NME    CH3   29  12.857  14.652  13.819  0.0806  0.0519  0.6371
    4NME   HH31   30  12.858  14.640  13.927 -0.2736 -1.2374  0.5130
    4NME   HH32   31  12.751  14.666  13.798  0.2490  1.4745  0.5626
    4NME   HH33   32  12.900  14.564  13.772 -2.1728 -0.7343 -0.0724
  20.99041  20.99041  20.99041
