Protein
   42
    1ACE   HH31    1   8.199   7.220  16.580  0.8475  0.3894  1.0635
    1ACE    CH3    2   8.126   7.213  16.660 -0.3444  0.1094 -0.0176
    1ACE   HH32    3   8.170   7.163  16.746  0.6512 -2.4439 -1.8888
    1ACE   HH33    4   8.048   7.149  16.620  1.5767 -1.7533 -0.9274
    1ACE      C    5   8.065   7.354  16.693  0.5026 -0.4145 -0.0893
    1ACE      O    6   8.033   7.391  16.801 -0.6975 -0.3971 -0.4230
    2ALA      N    7   8.040   7.430  16.589  0.0598 -0.6559  0.0852
    2ALA      H    8   8.073   7.394  16.501  1.2948  2.1243 -0.7059
    2ALA     CA    9   7.954   7.549  16.584  0.2487 -0.0094 -0.7050
    2ALA     HA   10   7.991   7.626  16.652 -2.9390 -1.9068  3.6415
    2ALA     CB   11   7.960   7.603  16.443  0.6811  0.2580  0.7768
    2ALA    HB1   12   7.897   7.542  16.378  0.3750  2.7525 -1.4537
    2ALA    HB2   13   7.920   7.705  16.442  1.5765  0.7549  4.4110
    2ALA    HB3   14   8.057   7.607  16.393  0.2543 -1.6600 -0.3213
    2ALA      C   15   7.813   7.509  16.624  0.8311 -0.2554  0.0014
    2ALA      O   16   7.763   7.411  16.578  0.1518 -0.4218 -0.5020
    3ALA      N   17   7.744   7.587  16.704 -0.1318 -0.3356 -0.2467
    3ALA      H   18   7.653   7.551  16.727 -0.4629  0.6610  0.0402
    3ALA     CA   19   7.782   7.709  16.780  0.0272 -0.1573  0.6946
    3ALA     HA   20   7.857   7.765  16.725  0.1923  0.5779  1.6250
    3ALA     CB   21   7.657   7.806  16.773  0.5676 -0.2436 -0.0708
    3ALA    HB1   22   7.567   7.766  16.819 -0.6490  0.9148 -1.3544
    3ALA    HB2   23   7.678   7.907  16.809  0.5512  0.1946 -1.2447
    3ALA    HB3   24   7.639   7.831  16.668 -0.8460 -0.1741  0.1743
    3ALA      C   25   7.838   7.681  16.921  0.6940 -0.4543  0.5367
    3ALA      O   26   7.833   7.776  17.000  0.2434 -0.1666  0.1890
    4ALA      N   27   7.878   7.562  16.954 -0.0174  0.5844  0.4853
    4ALA      H   28   7.886   7.492  16.882 -0.5554  2.1707 -1.1873
    4ALA     CA   29   7.911   7.514  17.093  0.5940  0.3395  0.3619
    4ALA     HA   30   7.932   7.407  17.083  4.5968  0.7436  2.5358
    4ALA     CB   31   8.039   7.586  17.143 -0.1410  0.5734 -0.0982
    4ALA    HB1   32   8.111   7.569  17.063  0.8539  1.5246  0.5488
    4ALA    HB2   33   8.027   7.694  17.155 -2.4112  0.4088 -0.3783
    4ALA    HB3   34   8.060   7.536  17.237 -0.2355  0.2531 -0.2451
    4ALA      C   35   7.792   7.517  17.195  1.1810  0.7433  0.2684
    4ALA      O   36   7.762   7.413  17.255 -0.4821 -0.4157 -0.0734
    5NME      N   37   7.718   7.627  17.207  0.3232  0.1489 -0.2416
    5NME      H   38   7.736   7.703  17.144 -0.8114 -0.3980 -1.2501
    5NME    CH3   39   7.613   7.640  17.303  0.1453  0.3364 -0.2664
    5NME   HH31   40   7.608   7.739  17.348  0.5710  0.2973 -0.1287
    5NME   HH32   41   7.516   7.617  17.259  0.0484 -1.2385  0.6991
    5NME   HH33   42   7.627   7.566  17.382  0.7925 -1.3117 -1.8708
  20.91516  20.91516  20.91516
