Protein
   42
    1ACE   HH31    1  15.482  10.626  13.625  1.2068  0.5304  0.5347
    1ACE    CH3    2  15.553  10.635  13.543 -0.0416 -0.3204 -0.6992
    1ACE   HH32    3  15.536  10.551  13.476  1.5730 -0.0193 -1.5580
    1ACE   HH33    4  15.656  10.635  13.580 -0.5803  0.6796  0.8561
    1ACE      C    5  15.536  10.765  13.462 -0.3527  0.3765 -0.4885
    1ACE      O    6  15.637  10.836  13.441  0.6644  0.2348  0.5544
    2ALA      N    7  15.412  10.790  13.424 -0.2675  0.3771 -0.6158
    2ALA      H    8  15.344  10.731  13.469  0.8751  0.4820  1.3182
    2ALA     CA    9  15.358  10.904  13.354 -0.0916 -0.7210  0.1213
    2ALA     HA   10  15.278  10.870  13.288 -1.0478 -0.4449  1.0979
    2ALA     CB   11  15.284  11.001  13.453  0.5542 -0.6126 -0.1246
    2ALA    HB1   12  15.195  10.971  13.507 -1.3020  0.8970 -2.1229
    2ALA    HB2   13  15.358  11.044  13.520  0.6519 -0.4057 -0.3683
    2ALA    HB3   14  15.237  11.072  13.384  0.4130 -1.2170 -0.6722
    2ALA      C   15  15.456  10.966  13.259 -0.0419  0.5135 -0.0745
    2ALA      O   16  15.456  10.914  13.152 -0.1399 -0.3582  0.4168
    3ALA      N   17  15.528  11.073  13.295 -0.2418 -0.3121 -0.4741
    3ALA      H   18  15.510  11.103  13.389  1.7883 -1.8261  0.4647
    3ALA     CA   19  15.645  11.129  13.225  0.2770 -0.0597  0.1769
    3ALA     HA   20  15.601  11.195  13.149  0.0132 -1.9509 -1.3831
    3ALA     CB   21  15.720  11.222  13.323 -0.9022 -0.0032 -0.5550
    3ALA    HB1   22  15.655  11.305  13.352 -0.2808  0.3558 -0.1585
    3ALA    HB2   23  15.755  11.150  13.396  0.5864 -1.3183 -2.4707
    3ALA    HB3   24  15.811  11.268  13.285 -1.4331  0.7942 -0.8881
    3ALA      C   25  15.729  11.031  13.142 -0.1100  0.1810  0.4101
    3ALA      O   26  15.772  11.060  13.030  0.3475  0.0465  0.1733
    4ALA      N   27  15.773  10.913  13.195 -0.0876  0.8211 -0.7251
    4ALA      H   28  15.764  10.890  13.293  1.6113  0.3410 -0.6380
    4ALA     CA   29  15.839  10.793  13.132 -0.1339 -0.7358  0.8535
    4ALA     HA   30  15.840  10.729  13.220  1.1864 -0.2851  1.1860
    4ALA     CB   31  15.744  10.736  13.026  0.5971 -0.9877  0.0158
    4ALA    HB1   32  15.735  10.795  12.935 -2.0068  0.2278  0.9630
    4ALA    HB2   33  15.788  10.642  12.993  0.7066 -0.9173 -0.0517
    4ALA    HB3   34  15.644  10.724  13.068  1.0128  0.1185  1.3802
    4ALA      C   35  15.987  10.822  13.095  0.8209 -0.2491 -0.0123
    4ALA      O   36  16.058  10.723  13.103 -0.0736  0.4299 -0.3441
    5NME      N   37  16.028  10.947  13.065 -0.1391  0.0119 -0.5987
    5NME      H   38  15.960  11.021  13.060 -0.5690 -0.2990  0.3542
    5NME    CH3   39  16.158  10.973  13.016  0.4149  0.1121 -0.1338
    5NME   HH31   40  16.237  10.903  13.044  0.7238 -0.1371 -1.6087
    5NME   HH32   41  16.152  10.987  12.908  0.3455 -0.2434 -0.1789
    5NME   HH33   42  16.183  11.068  13.064 -3.0505  1.7564 -1.2655
  20.91516  20.91516  20.91516
