Protein
   42
    1ACE   HH31    1   6.717  13.497  15.896 -0.2209 -1.1789  1.3207
    1ACE    CH3    2   6.616  13.459  15.883 -0.4479 -0.1135 -0.2511
    1ACE   HH32    3   6.552  13.520  15.947 -0.4673  0.7578 -1.0690
    1ACE   HH33    4   6.620  13.351  15.900  0.1764 -0.5419 -2.6245
    1ACE      C    5   6.571  13.476  15.740 -0.5529  0.0220  0.1545
    1ACE      O    6   6.578  13.378  15.663 -0.8155 -0.0312 -0.9166
    2ALA      N    7   6.537  13.594  15.697 -0.3806  0.1426 -0.3688
    2ALA      H    8   6.549  13.666  15.767  0.4411 -0.2734 -0.0608
    2ALA     CA    9   6.507  13.638  15.561  0.0529 -0.1626  0.3542
    2ALA     HA   10   6.457  13.553  15.514 -0.8041 -0.5543  1.8859
    2ALA     CB   11   6.412  13.763  15.575  0.1739  0.2799 -0.6680
    2ALA    HB1   12   6.394  13.811  15.479 -2.1629  0.8845  0.0301
    2ALA    HB2   13   6.316  13.728  15.612  1.5060 -0.4065  2.4894
    2ALA    HB3   14   6.447  13.834  15.650 -2.3895 -1.4089  2.3558
    2ALA      C   15   6.637  13.687  15.489  0.7362  0.5664 -0.3044
    2ALA      O   16   6.726  13.744  15.552 -0.2191  0.4623  0.1729
    3ALA      N   17   6.651  13.654  15.361  0.2339  0.0848 -0.4699
    3ALA      H   18   6.734  13.683  15.311 -0.3655 -1.5487 -2.5905
    3ALA     CA   19   6.548  13.596  15.277  0.5074  0.6679  0.5173
    3ALA     HA   20   6.451  13.640  15.299 -1.3938 -1.7737 -2.2424
    3ALA     CB   21   6.582  13.646  15.140  0.1937 -0.3229  0.3766
    3ALA    HB1   22   6.598  13.754  15.145 -0.5440 -0.2177  0.7954
    3ALA    HB2   23   6.680  13.617  15.104  0.4754  2.4349 -1.4326
    3ALA    HB3   24   6.506  13.618  15.067 -2.2091  2.2624  1.6539
    3ALA      C   25   6.528  13.445  15.284 -0.6919  0.4463  0.2086
    3ALA      O   26   6.412  13.404  15.294 -0.1542  0.5372 -0.4174
    4ALA      N   27   6.642  13.367  15.296  0.1584 -0.4450 -0.4151
    4ALA      H   28   6.727  13.421  15.295  0.2088 -0.5232 -0.5267
    4ALA     CA   29   6.645  13.223  15.338 -0.4669  0.5219 -0.2706
    4ALA     HA   30   6.554  13.211  15.398 -2.6414  1.7052 -3.0700
    4ALA     CB   31   6.659  13.133  15.214  0.1953 -0.0089 -0.5705
    4ALA    HB1   32   6.591  13.159  15.132  1.1426  1.5637 -0.8977
    4ALA    HB2   33   6.758  13.152  15.175  0.6958  0.6827  0.9203
    4ALA    HB3   34   6.647  13.029  15.245 -1.2287  0.4198  0.4124
    4ALA      C   35   6.757  13.182  15.439  0.0765 -0.3935  0.0829
    4ALA      O   36   6.862  13.238  15.425 -0.7864  0.4682 -0.1690
    5NME      N   37   6.731  13.079  15.525 -0.1702  0.4695  0.1487
    5NME      H   38   6.646  13.025  15.515  1.4903 -2.0508 -1.3708
    5NME    CH3   39   6.843  13.028  15.609  0.0655 -0.6513 -0.1000
    5NME   HH31   40   6.877  13.106  15.676  0.1629 -0.7581 -0.0259
    5NME   HH32   41   6.825  12.945  15.678  2.6915 -2.3157 -1.2617
    5NME   HH33   42   6.922  13.002  15.538  2.1130 -0.6125  2.0521
  20.91516  20.91516  20.91516
