Protein
   42
    1ACE   HH31    1   5.150  12.898  16.867 -2.0908  0.7683 -3.0575
    1ACE    CH3    2   5.227  12.858  16.803  0.3287  0.3668 -0.0983
    1ACE   HH32    3   5.297  12.800  16.864 -2.3136 -0.4302  2.3408
    1ACE   HH33    4   5.288  12.937  16.759  1.4165  0.9169  2.2374
    1ACE      C    5   5.171  12.761  16.696 -0.5409  0.3259  0.6064
    1ACE      O    6   5.209  12.647  16.697 -0.1866  0.3559  0.6279
    2ALA      N    7   5.090  12.813  16.607  0.7404 -0.1445  0.2022
    2ALA      H    8   5.060  12.908  16.627 -0.0928 -0.6905  1.6719
    2ALA     CA    9   5.045  12.745  16.484 -0.1351  0.4828  0.4344
    2ALA     HA   10   5.093  12.649  16.466  0.0731  0.7717 -0.5582
    2ALA     CB   11   4.893  12.708  16.486  0.6730 -0.5149  0.5425
    2ALA    HB1   12   4.879  12.642  16.572 -0.5885 -0.6003  0.2929
    2ALA    HB2   13   4.826  12.793  16.503 -0.2013 -1.0211 -0.3092
    2ALA    HB3   14   4.862  12.660  16.393  2.2948 -0.7898  0.1143
    2ALA      C   15   5.091  12.827  16.355  0.0397 -0.1057 -0.0319
    2ALA      O   16   5.082  12.945  16.338  0.3460 -0.2270 -0.3841
    3ALA      N   17   5.152  12.764  16.254  0.5604  0.5563  0.9042
    3ALA      H   18   5.173  12.829  16.179 -1.1040  1.0744  0.8326
    3ALA     CA   19   5.164  12.625  16.219 -0.3129  0.7101  0.0369
    3ALA     HA   20   5.061  12.591  16.234  0.1129 -1.7749 -2.1345
    3ALA     CB   21   5.188  12.609  16.063 -0.8642 -0.0438 -0.1853
    3ALA    HB1   22   5.279  12.654  16.024 -0.9783  0.4647  0.1234
    3ALA    HB2   23   5.204  12.502  16.050 -3.0498 -0.1996 -2.0964
    3ALA    HB3   24   5.104  12.648  16.005 -1.2169 -0.0313  0.3083
    3ALA      C   25   5.275  12.547  16.303  0.2960  0.7230 -0.7962
    3ALA      O   26   5.292  12.427  16.283  0.0752 -0.3960  0.5940
    4ALA      N   27   5.341  12.624  16.394 -0.4990  0.0175 -0.1825
    4ALA      H   28   5.315  12.722  16.395 -1.8608 -0.1596 -3.4216
    4ALA     CA   29   5.440  12.583  16.491  0.2867 -0.1165 -0.6592
    4ALA     HA   30   5.398  12.514  16.565  2.5901  0.9541  1.8265
    4ALA     CB   31   5.559  12.518  16.424 -0.1111 -0.8231 -0.7888
    4ALA    HB1   32   5.522  12.422  16.389 -1.0630 -1.1732  1.1056
    4ALA    HB2   33   5.597  12.571  16.336  0.2978  1.1270  0.4957
    4ALA    HB3   34   5.636  12.494  16.497 -0.4466 -1.6809 -0.7079
    4ALA      C   35   5.486  12.705  16.574 -0.5426 -0.2538 -0.3443
    4ALA      O   36   5.461  12.818  16.530 -0.4945 -0.2771  0.0796
    5NME      N   37   5.537  12.678  16.698  0.0129  0.3777  0.6378
    5NME      H   38   5.533  12.580  16.720  0.0578 -0.0271 -1.0712
    5NME    CH3   39   5.573  12.783  16.794 -0.0867  0.1057 -0.0912
    5NME   HH31   40   5.678  12.765  16.818  0.2272 -2.3847 -2.7765
    5NME   HH32   41   5.560  12.884  16.756 -0.1687  0.2621  0.3410
    5NME   HH33   42   5.516  12.779  16.887  0.5939 -0.1524  0.3311
  20.91516  20.91516  20.91516
