Protein
   32
    1ACE   HH31    1  10.753  11.443  10.800  0.4351 -1.1946 -0.0548
    1ACE    CH3    2  10.777  11.460  10.695 -0.1666  0.2402  0.0152
    1ACE   HH32    3  10.687  11.435  10.638 -1.8584  1.3773  2.0091
    1ACE   HH33    4  10.848  11.384  10.664 -2.1043 -1.5364 -0.3510
    1ACE      C    5  10.829  11.602  10.678 -0.2760  0.2687  0.4617
    1ACE      O    6  10.744  11.688  10.653 -0.0330 -1.1589 -0.3194
    2ALA      N    7  10.965  11.622  10.678 -0.0771  0.1339 -0.9879
    2ALA      H    8  11.029  11.554  10.717 -0.6300  0.5405  0.7321
    2ALA     CA    9  11.025  11.759  10.674  0.5030 -0.5645  0.4685
    2ALA     HA   10  10.954  11.827  10.720 -1.4979 -1.4690 -1.0850
    2ALA     CB   11  11.151  11.752  10.751 -0.0044 -0.1078 -0.6709
    2ALA    HB1   12  11.186  11.853  10.773  0.2073 -0.2323 -0.3892
    2ALA    HB2   13  11.138  11.707  10.849 -2.7003  1.7952 -0.0647
    2ALA    HB3   14  11.223  11.699  10.688 -0.7031 -0.2575 -1.3503
    2ALA      C   15  11.043  11.814  10.529  0.0558  0.7579  0.4000
    2ALA      O   16  11.007  11.929  10.507 -0.5851 -0.2709 -0.1238
    3ALA      N   17  11.098  11.735  10.436  0.9596  0.4772 -0.0618
    3ALA      H   18  11.115  11.638  10.458 -1.8129 -0.0775 -0.0109
    3ALA     CA   19  11.106  11.774  10.298  0.3401  0.3218 -0.0454
    3ALA     HA   20  11.163  11.866  10.297 -0.1211  0.6198 -0.9018
    3ALA     CB   21  11.197  11.670  10.225  0.1440  1.2162 -0.4526
    3ALA    HB1   22  11.296  11.683  10.269  0.7839  1.6091 -1.9654
    3ALA    HB2   23  11.159  11.572  10.253  0.1392  1.5234  0.6508
    3ALA    HB3   24  11.197  11.685  10.117  1.6165  2.3703 -0.3403
    3ALA      C   25  10.965  11.786  10.239  1.1986  0.5144  0.6365
    3ALA      O   26  10.901  11.681  10.222  0.1929  0.5388 -0.4828
    4NME      N   27  10.922  11.906  10.193 -0.4154  0.1157  0.2419
    4NME      H   28  10.972  11.987  10.225 -0.4775 -0.4732  1.9268
    4NME    CH3   29  10.801  11.919  10.115  0.2986  0.6621  0.2227
    4NME   HH31   30  10.715  11.905  10.181 -0.0414  0.4981 -0.2404
    4NME   HH32   31  10.792  12.019  10.072  0.2581  1.4321  1.9617
    4NME   HH33   32  10.806  11.838  10.041  0.5310 -1.2240  2.2409
  20.99041  20.99041  20.99041
