Protein
   42
    1ACE   HH31    1   5.772   8.781  17.351  1.1552 -1.4356 -0.5209
    1ACE    CH3    2   5.779   8.873  17.293  0.4866 -1.2849 -0.3751
    1ACE   HH32    3   5.767   8.849  17.187 -0.0272  0.8716 -0.8315
    1ACE   HH33    4   5.875   8.923  17.298 -0.2699  0.2075 -0.5453
    1ACE      C    5   5.682   8.989  17.326  0.1990  0.0107  0.3129
    1ACE      O    6   5.646   9.005  17.436 -0.0118  0.3698 -0.0049
    2ALA      N    7   5.648   9.069  17.229 -0.1716 -0.1094  0.7977
    2ALA      H    8   5.707   9.053  17.148  1.2886  2.3483  1.2831
    2ALA     CA    9   5.577   9.199  17.240 -0.8175 -1.0252  0.8330
    2ALA     HA   10   5.623   9.257  17.320  0.4963 -2.2805  1.0316
    2ALA     CB   11   5.610   9.273  17.105  0.0814 -0.3099  0.0656
    2ALA    HB1   12   5.555   9.367  17.099  0.9606  0.3228  1.6252
    2ALA    HB2   13   5.709   9.317  17.096 -0.3311  0.7083  0.2915
    2ALA    HB3   14   5.584   9.218  17.014 -2.7245  0.1071  0.5041
    2ALA      C   15   5.427   9.188  17.274  0.4559 -0.1509  0.3198
    2ALA      O   16   5.337   9.219  17.191 -0.7474  0.3820  0.1683
    3ALA      N   17   5.408   9.138  17.399  0.5578 -0.5058 -0.5140
    3ALA      H   18   5.490   9.116  17.454  0.2862 -3.3941 -1.0858
    3ALA     CA   19   5.275   9.118  17.453  0.6395  0.6275 -0.5606
    3ALA     HA   20   5.237   9.036  17.392 -1.6674  0.9978  0.2597
    3ALA     CB   21   5.296   9.075  17.601 -0.5708  0.4275  0.9912
    3ALA    HB1   22   5.368   8.993  17.596 -1.5221 -0.3973  0.2859
    3ALA    HB2   23   5.346   9.152  17.659 -0.9207  0.0763  1.7806
    3ALA    HB3   24   5.203   9.051  17.652 -0.6714 -1.3362  0.0595
    3ALA      C   25   5.177   9.232  17.453  0.1763 -0.5032  0.5887
    3ALA      O   26   5.224   9.344  17.485 -0.1818 -0.1473  0.0808
    4ALA      N   27   5.053   9.213  17.402 -0.2436  0.0667 -0.2421
    4ALA      H   28   5.029   9.117  17.386 -1.1882  0.1627  0.5093
    4ALA     CA   29   4.946   9.318  17.385  0.3536  0.1291 -0.4744
    4ALA     HA   30   4.857   9.265  17.352  0.2944 -0.6582  0.8335
    4ALA     CB   31   4.924   9.377  17.525  0.1843 -0.1359  0.1042
    4ALA    HB1   32   4.820   9.410  17.528 -0.9610 -3.2029 -1.7767
    4ALA    HB2   33   4.934   9.293  17.594 -0.2897 -0.3618 -0.0899
    4ALA    HB3   34   4.996   9.453  17.555 -0.3326 -0.2901  1.8344
    4ALA      C   35   4.974   9.430  17.285  0.4003 -0.2056 -0.1284
    4ALA      O   36   4.880   9.506  17.265 -0.7169 -0.4227  0.2542
    5NME      N   37   5.088   9.428  17.217 -0.0904  0.7179  0.0813
    5NME      H   38   5.163   9.371  17.252  0.2169 -0.6774 -2.6003
    5NME    CH3   39   5.132   9.536  17.122  0.0634  1.1096 -0.0897
    5NME   HH31   40   5.192   9.613  17.171 -1.8892  3.2472 -0.8849
    5NME   HH32   41   5.198   9.491  17.048  1.2886 -0.2721  1.7678
    5NME   HH33   42   5.053   9.583  17.063 -0.5019  0.7470  0.3533
  20.91516  20.91516  20.91516
