Protein
   32
    1ACE   HH31    1  10.886   8.613   9.789  0.0259  0.4578  1.6394
    1ACE    CH3    2  10.814   8.546   9.836 -0.5874  0.4776  0.7545
    1ACE   HH32    3  10.812   8.586   9.937  0.7864  1.7615  0.3188
    1ACE   HH33    4  10.843   8.442   9.821  1.0975  0.9775  0.3291
    1ACE      C    5  10.688   8.565   9.760  0.5856 -0.1824 -0.1767
    1ACE      O    6  10.679   8.667   9.696 -0.1063  0.4829  0.1256
    2ALA      N    7  10.601   8.471   9.787  0.5140  0.2847 -0.3262
    2ALA      H    8  10.634   8.419   9.866  1.0253  0.8109 -0.1893
    2ALA     CA    9  10.469   8.444   9.728  0.3780  0.3461 -0.2126
    2ALA     HA   10  10.434   8.349   9.769 -0.9481  1.1644  0.6147
    2ALA     CB   11  10.367   8.550   9.785 -0.1705  0.5384  0.0860
    2ALA    HB1   12  10.368   8.637   9.720 -0.1126 -0.7374 -1.6997
    2ALA    HB2   13  10.271   8.499   9.783  1.1398 -2.1113 -3.1934
    2ALA    HB3   14  10.393   8.558   9.891  0.2870 -0.3393  0.0525
    2ALA      C   15  10.475   8.436   9.577  0.3097  1.0443 -0.2592
    2ALA      O   16  10.447   8.330   9.518 -0.2395  0.1669 -0.3464
    3ALA      N   17  10.501   8.547   9.507  0.2566  0.1749  0.1025
    3ALA      H   18  10.513   8.635   9.555 -1.3967  1.3573 -1.5231
    3ALA     CA   19  10.567   8.556   9.375 -0.4246  0.4183 -0.0837
    3ALA     HA   20  10.509   8.506   9.297 -1.9438  2.4412 -0.3677
    3ALA     CB   21  10.558   8.702   9.335 -0.4099  0.9052  0.7910
    3ALA    HB1   22  10.456   8.739   9.341 -0.5762  1.1872 -2.3878
    3ALA    HB2   23  10.610   8.766   9.407  0.4145  0.8608  0.2620
    3ALA    HB3   24  10.604   8.727   9.239  2.7366 -0.5672  1.8070
    3ALA      C   25  10.707   8.500   9.368 -0.1445  0.8713 -0.2740
    3ALA      O   26  10.747   8.447   9.466  0.0691  0.6352 -0.5230
    4NME      N   27  10.776   8.521   9.257 -0.0019 -0.1861 -0.7091
    4NME      H   28  10.721   8.563   9.184 -0.3290 -0.6527 -0.7380
    4NME    CH3   29  10.907   8.463   9.219  0.3144 -0.2454  0.1872
    4NME   HH31   30  10.990   8.522   9.259  0.1051 -1.0880  1.9539
    4NME   HH32   31  10.908   8.365   9.266 -0.1232 -0.1798  0.3367
    4NME   HH33   32  10.917   8.454   9.111 -0.7625 -0.5639  0.1028
  20.99041  20.99041  20.99041
