Protein
   32
    1ACE   HH31    1  10.549   8.141   7.509 -1.3409  1.2119  0.2665
    1ACE    CH3    2  10.459   8.110   7.456 -0.3286 -0.0381 -0.8047
    1ACE   HH32    3  10.461   8.144   7.353 -2.2523 -0.0004 -0.8680
    1ACE   HH33    4  10.375   8.167   7.497  1.3118  3.2109 -1.6186
    1ACE      C    5  10.447   7.953   7.450 -0.5121 -0.0971 -0.8442
    1ACE      O    6  10.470   7.887   7.347  0.4456 -0.5425 -0.2196
    2ALA      N    7  10.421   7.894   7.568  0.0792 -0.2550  0.3466
    2ALA      H    8  10.407   7.954   7.648 -0.7425 -1.1569  0.8824
    2ALA     CA    9  10.436   7.756   7.605 -0.4640  0.2165 -0.1059
    2ALA     HA   10  10.441   7.756   7.714  0.1906  1.9254 -0.1073
    2ALA     CB   11  10.322   7.672   7.533 -0.3012 -0.1656 -0.7815
    2ALA    HB1   12  10.325   7.688   7.425 -0.1642 -1.4466 -0.9826
    2ALA    HB2   13  10.337   7.565   7.548  0.2824 -0.1922 -1.5132
    2ALA    HB3   14  10.227   7.697   7.580  0.2494 -0.1401  0.3590
    2ALA      C   15  10.580   7.715   7.567 -0.0561  0.3883 -0.4763
    2ALA      O   16  10.674   7.775   7.618  0.3747  0.3184  0.0708
    3ALA      N   17  10.595   7.619   7.475  0.0544  0.0688 -0.4363
    3ALA      H   18  10.513   7.563   7.456  1.3496 -2.5836  1.2509
    3ALA     CA   19  10.723   7.579   7.421  0.0810  0.2204  0.0198
    3ALA     HA   20  10.806   7.603   7.488  1.2606  0.2441 -1.4142
    3ALA     CB   21  10.723   7.425   7.415  0.4340  0.4197 -0.0031
    3ALA    HB1   22  10.816   7.391   7.369  0.8687  0.8888  0.5079
    3ALA    HB2   23  10.711   7.376   7.511 -4.2639 -0.6707 -0.8760
    3ALA    HB3   24  10.637   7.390   7.358 -1.2597  1.8349  1.5641
    3ALA      C   25  10.768   7.641   7.287 -0.4371  0.1160 -0.3598
    3ALA      O   26  10.871   7.599   7.235  0.4662 -0.1718  0.4516
    4NME      N   27  10.700   7.740   7.234 -0.1892 -0.3551  0.3045
    4NME      H   28  10.634   7.790   7.292  1.5523 -0.4474  2.4863
    4NME    CH3   29  10.734   7.802   7.102  0.0628 -0.2868 -0.1444
    4NME   HH31   30  10.666   7.886   7.084 -2.5619 -2.0070  1.1704
    4NME   HH32   31  10.840   7.828   7.103  0.5359 -2.1539  0.7233
    4NME   HH33   32  10.711   7.728   7.026  0.5205 -0.0415 -0.5214
  20.99041  20.99041  20.99041
