Protein
   22
    1ACE   HH31    1   3.691   8.231   7.866 -0.1094 -1.9051  0.2771
    1ACE    CH3    2   3.771   8.215   7.938 -0.1550  0.2541  0.8728
    1ACE   HH32    3   3.865   8.222   7.882 -0.8451 -2.9172 -0.8933
    1ACE   HH33    4   3.773   8.110   7.967 -0.0147 -0.5765 -1.8998
    1ACE      C    5   3.765   8.311   8.057  0.4324 -0.0557  0.1844
    1ACE      O    6   3.648   8.352   8.085 -0.1468  0.6086 -0.1969
    2ALA      N    7   3.879   8.332   8.119 -0.7081 -0.3391 -0.0319
    2ALA      H    8   3.957   8.287   8.073 -1.2504 -0.3628 -0.9543
    2ALA     CA    9   3.899   8.405   8.249  0.0701  0.4577 -0.5478
    2ALA     HA   10   3.998   8.451   8.246  0.0406  0.6089  0.3641
    2ALA     CB   11   3.807   8.522   8.268 -0.2139  0.1640 -0.7092
    2ALA    HB1   12   3.702   8.494   8.278 -0.4417  1.6936  2.9567
    2ALA    HB2   13   3.838   8.574   8.359  1.5424  0.2337 -1.3114
    2ALA    HB3   14   3.809   8.595   8.187 -2.1148  0.2871 -0.6929
    2ALA      C   15   3.893   8.303   8.360 -0.0034  0.4012  0.8924
    2ALA      O   16   3.827   8.199   8.345  0.6721  0.5054  0.3009
    3NME      N   17   3.975   8.323   8.463  0.4299 -0.5528 -0.5269
    3NME      H   18   4.031   8.407   8.462  1.8339 -1.4632 -1.4045
    3NME    CH3   19   3.978   8.235   8.580 -0.6199  0.3847 -0.5565
    3NME   HH31   20   3.930   8.143   8.545  0.2662 -0.3897  0.1808
    3NME   HH32   21   4.082   8.209   8.601 -0.3230 -0.9521 -3.1926
    3NME   HH33   22   3.930   8.272   8.671  0.9155 -0.2612  0.5769
  10.72160  10.72160  10.72160
