Protein
   22
    1ACE   HH31    1   1.041   2.482   9.359  1.8355  1.0295 -0.2452
    1ACE    CH3    2   1.026   2.466   9.252  0.6951  0.6738 -0.0428
    1ACE   HH32    3   0.949   2.534   9.216  0.4544 -1.0333 -3.1127
    1ACE   HH33    4   1.001   2.364   9.221  0.2797  1.0241 -0.8813
    1ACE      C    5   1.153   2.508   9.186 -0.3095 -1.0448  0.8417
    1ACE      O    6   1.243   2.546   9.253  0.3681  0.0319 -0.2387
    2ALA      N    7   1.164   2.497   9.054 -1.0366 -0.1164 -0.0006
    2ALA      H    8   1.085   2.452   9.011 -0.2904 -1.3763 -0.0678
    2ALA     CA    9   1.280   2.534   8.973 -0.3037 -0.3144  0.3037
    2ALA     HA   10   1.325   2.625   9.014 -0.4639  0.5783 -1.4074
    2ALA     CB   11   1.393   2.429   8.968  0.3390  0.1529 -0.7430
    2ALA    HB1   12   1.358   2.341   8.914  0.7784 -0.7211  0.3439
    2ALA    HB2   13   1.482   2.473   8.925 -0.5541  1.7837 -1.0066
    2ALA    HB3   14   1.407   2.390   9.069  0.1409 -0.1554 -0.8349
    2ALA      C   15   1.233   2.569   8.830 -1.0317 -0.0954 -0.6577
    2ALA      O   16   1.201   2.678   8.794 -0.2803 -0.2142  0.1926
    3NME      N   17   1.249   2.476   8.737  0.0624 -0.1566 -0.7064
    3NME      H   18   1.287   2.389   8.772  0.3250  0.2225 -0.0331
    3NME    CH3   19   1.230   2.496   8.592 -0.1102 -0.3943 -0.2203
    3NME   HH31   20   1.295   2.574   8.552  1.2975 -1.4503 -0.0893
    3NME   HH32   21   1.271   2.403   8.554 -1.5158 -2.0429  2.0578
    3NME   HH33   22   1.124   2.511   8.574 -0.8229 -2.9805  1.3542
  10.72160  10.72160  10.72160
