Protein
   42
    1ACE   HH31    1  11.898   7.182  12.554 -3.5145  0.8380  0.4117
    1ACE    CH3    2  11.883   7.093  12.493  0.0080  0.1948  0.2974
    1ACE   HH32    3  11.799   7.108  12.425 -1.6077  1.6848  2.4687
    1ACE   HH33    4  11.853   7.023  12.571  1.6321  0.9436  1.6671
    1ACE      C    5  12.012   7.047  12.424 -0.0105  0.2910 -0.0826
    1ACE      O    6  12.013   7.047  12.300  0.4823 -0.0054 -1.2098
    2ALA      N    7  12.119   7.035  12.502  0.1517 -0.2123 -0.4760
    2ALA      H    8  12.087   7.035  12.597  3.2410 -2.8921  0.7378
    2ALA     CA    9  12.261   7.045  12.469 -0.0327 -0.6515 -0.0523
    2ALA     HA   10  12.269   6.986  12.377  0.5231  0.0488 -0.4583
    2ALA     CB   11  12.297   7.194  12.455  0.4135 -0.2603  0.6573
    2ALA    HB1   12  12.263   7.250  12.543  1.1206 -0.9457  1.3803
    2ALA    HB2   13  12.403   7.207  12.437  0.0456 -0.4841 -2.0000
    2ALA    HB3   14  12.243   7.246  12.375  0.5527  1.0904  1.4076
    2ALA      C   15  12.357   6.976  12.573  0.3459  0.2190  0.1588
    2ALA      O   16  12.345   6.994  12.692  0.5488  0.3348 -0.1661
    3ALA      N   17  12.461   6.917  12.526 -0.1820  0.3361 -0.7540
    3ALA      H   18  12.535   6.896  12.593 -1.4670  2.9101  1.6470
    3ALA     CA   19  12.509   6.905  12.391 -0.3480 -0.0549 -0.5977
    3ALA     HA   20  12.438   6.952  12.323 -0.4176 -0.2053 -0.6359
    3ALA     CB   21  12.642   6.986  12.374  0.5165  0.0765  0.0518
    3ALA    HB1   22  12.730   6.923  12.386  0.8612  0.6021  0.3333
    3ALA    HB2   23  12.643   7.030  12.274 -0.5221  1.0153  0.4335
    3ALA    HB3   24  12.648   7.066  12.448  2.1151  0.0858 -0.0414
    3ALA      C   25  12.521   6.755  12.335  0.6740 -0.4142 -0.0169
    3ALA      O   26  12.537   6.739  12.213  0.0781  0.2421 -0.4963
    4ALA      N   27  12.504   6.656  12.421 -0.6313  0.1197 -0.0222
    4ALA      H   28  12.510   6.688  12.517  2.8120  0.8483 -0.3509
    4ALA     CA   29  12.494   6.510  12.393 -1.3964 -0.3723  0.2092
    4ALA     HA   30  12.542   6.454  12.473 -0.4830 -1.2166 -0.8887
    4ALA     CB   31  12.347   6.478  12.400  0.1003 -0.8811 -0.8842
    4ALA    HB1   32  12.294   6.543  12.470 -0.2034  0.2954 -2.1482
    4ALA    HB2   33  12.297   6.486  12.303  3.1472  0.6552 -2.4347
    4ALA    HB3   34  12.340   6.374  12.431 -0.3840 -0.5802  0.0356
    4ALA      C   35  12.565   6.432  12.273 -0.7963  0.0644 -0.7263
    4ALA      O   36  12.530   6.314  12.248 -0.0434  0.5329 -1.1098
    5NME      N   37  12.665   6.492  12.205 -0.1075  0.4473 -0.1048
    5NME      H   38  12.690   6.588  12.221 -1.3253  1.1649 -2.1868
    5NME    CH3   39  12.717   6.432  12.085 -0.2528  0.0614  0.2223
    5NME   HH31   40  12.790   6.497  12.037 -1.5450  0.6361 -1.0466
    5NME   HH32   41  12.773   6.340  12.102 -1.1239 -0.3530  0.9021
    5NME   HH33   42  12.635   6.407  12.017  0.0857  1.7088 -0.8635
  20.91516  20.91516  20.91516
