Title
  129
    1AIB    CAY    1  21.056  20.178  21.347 -0.3267 -0.1814  0.1202
    1AIB    HY1    2  21.018  20.108  21.269 -2.7383 -2.0729  2.7716
    1AIB    HY2    3  21.065  20.132  21.448  0.6890 -2.6666 -1.0201
    1AIB    HY3    4  21.155  20.214  21.311 -0.0915 -1.9370 -1.1538
    1AIB     CY    5  20.956  20.292  21.339  0.2084 -0.0076 -0.1869
    1AIB     OY    6  20.954  20.366  21.242  0.0492  0.6178  0.0300
    1AIB      N    7  20.881  20.313  21.446 -1.1836  0.4398 -0.7593
    1AIB     HN    8  20.900  20.241  21.513  0.5673  0.3094 -1.3288
    1AIB     CA    9  20.784  20.423  21.471 -0.2987  0.0733 -0.8012
    1AIB    CB1   10  20.865  20.548  21.500 -0.3514  0.1765  0.0643
    1AIB   HB11   11  20.918  20.529  21.595 -1.1050 -0.0618  0.4417
    1AIB   HB12   12  20.797  20.634  21.517  0.9547  1.5235 -1.1710
    1AIB   HB13   13  20.926  20.579  21.411  1.9484 -0.8540  1.1706
    1AIB    CB2   14  20.701  20.388  21.598  0.0267 -0.3430  0.7561
    1AIB   HB21   15  20.758  20.410  21.691  2.8493 -0.0990 -0.8986
    1AIB   HB22   16  20.667  20.283  21.598  0.9436 -0.6483  1.0470
    1AIB   HB23   17  20.610  20.451  21.605 -0.1878 -0.4303 -0.9420
    1AIB      C   18  20.686  20.450  21.355 -0.8751 -0.3350  0.2366
    1AIB      O   19  20.612  20.358  21.317 -0.8044 -0.2376  0.4506
    2AIB      N   20  20.688  20.569  21.294  0.7316  0.1542  0.1705
    2AIB     HN   21  20.747  20.639  21.333  0.1330  1.5857 -1.3679
    2AIB     CA   22  20.602  20.615  21.180 -0.2322  0.5697 -0.7552
    2AIB    CB1   23  20.643  20.758  21.139 -0.5095 -0.1437  0.0274
    2AIB   HB11   24  20.743  20.760  21.089 -1.1825 -0.8805 -1.4261
    2AIB   HB12   25  20.649  20.825  21.227 -1.4287  0.0959 -0.0720
    2AIB   HB13   26  20.570  20.800  21.067 -0.9959 -0.2118  0.4854
    2AIB    CB2   27  20.457  20.629  21.220 -0.0230  0.2540 -0.0422
    2AIB   HB21   28  20.413  20.529  21.242 -1.6675  0.3291 -2.5652
    2AIB   HB22   29  20.387  20.675  21.147 -1.3161 -0.2179  0.8398
    2AIB   HB23   30  20.445  20.687  21.314  0.5380  1.1746 -0.5319
    2AIB      C   31  20.602  20.511  21.066  0.0846 -0.2234 -0.1520
    2AIB      O   32  20.499  20.477  21.006 -0.0630  0.2576 -0.1678
    3AIB      N   33  20.729  20.464  21.029  0.1941 -0.5092 -0.4798
    3AIB     HN   34  20.808  20.495  21.081  0.7686 -1.6965 -0.6075
    3AIB     CA   35  20.762  20.378  20.916  0.5126  0.0089 -0.5113
    3AIB    CB1   36  20.910  20.339  20.899 -0.4064 -0.2686 -0.5482
    3AIB   HB11   37  20.913  20.253  20.829  0.1453 -0.8126  0.1305
    3AIB   HB12   38  20.973  20.316  20.988  0.6870  2.1079 -0.6543
    3AIB   HB13   39  20.973  20.422  20.861  2.6433 -1.7813  0.8347
    3AIB    CB2   40  20.727  20.464  20.798 -0.7298 -0.4244  0.7165
    3AIB   HB21   41  20.733  20.403  20.706  0.3182  2.3405 -1.2196
    3AIB   HB22   42  20.805  20.542  20.788  2.6667 -3.6870 -0.1841
    3AIB   HB23   43  20.625  20.510  20.799 -1.1304 -1.2990  1.5204
    3AIB      C   44  20.683  20.250  20.914 -0.3777  0.8058  0.1926
    3AIB      O   45  20.616  20.218  20.815 -0.1805 -0.0866 -0.4119
    4AIB      N   46  20.677  20.173  21.022 -0.5001 -0.6221 -0.3546
    4AIB     HN   47  20.720  20.207  21.105 -2.2456 -2.3031  1.3407
    4AIB     CA   48  20.614  20.047  21.057 -0.6168  0.1185  0.4963
    4AIB    CB1   49  20.658  19.998  21.193  0.5786 -0.0190  0.3300
    4AIB   HB11   50  20.618  19.895  21.205 -3.2151  1.0616 -1.6032
    4AIB   HB12   51  20.611  20.055  21.276  1.1871  0.1746  0.5553
    4AIB   HB13   52  20.768  19.985  21.200  0.5790 -1.3649 -1.3648
    4AIB    CB2   53  20.669  19.934  20.967 -0.1236 -0.1162  0.6880
    4AIB   HB21   54  20.778  19.938  20.950 -0.5487  0.4329 -2.3444
    4AIB   HB22   55  20.617  19.937  20.869 -0.8924  0.1999  1.0837
    4AIB   HB23   56  20.650  19.833  21.009 -0.8406 -0.8309 -1.2717
    4AIB      C   57  20.461  20.045  21.044 -0.1069 -0.1240  0.1896
    4AIB      O   58  20.408  19.958  20.972  0.3016  0.0233 -0.0633
    5AIB      N   59  20.394  20.149  21.095 -0.2195 -0.5740 -0.8477
    5AIB     HN   60  20.445  20.225  21.135 -1.6876  0.0535 -0.1191
    5AIB     CA   61  20.251  20.170  21.125 -0.2753  0.2001 -0.5045
    5AIB    CB1   62  20.241  20.295  21.217  0.0014  0.3120  0.5200
    5AIB   HB11   63  20.302  20.282  21.309 -1.5956 -1.2557  1.4019
    5AIB   HB12   64  20.138  20.316  21.251 -0.1804  0.0999  0.1065
    5AIB   HB13   65  20.282  20.378  21.156  0.5037 -1.1702 -1.2480
    5AIB    CB2   66  20.192  20.035  21.183  0.2215  0.2306 -0.1569
    5AIB   HB21   67  20.264  20.007  21.263  0.9464  1.7713 -0.2521
    5AIB   HB22   68  20.187  19.951  21.110  0.0214  0.0313  0.0838
    5AIB   HB23   69  20.090  20.045  21.225 -0.1221 -2.2768 -0.2038
    5AIB      C   70  20.182  20.211  20.990 -0.0636 -0.0641  0.0096
    5AIB      O   71  20.088  20.148  20.939 -0.1767  0.5392 -0.0978
    6AIB      N   72  20.231  20.317  20.925 -0.5353  0.2732  0.3707
    6AIB     HN   73  20.310  20.365  20.965  0.5071 -2.1215  1.3779
    6AIB     CA   74  20.193  20.370  20.794  0.7361 -0.0145  0.6020
    6AIB    CB1   75  20.298  20.473  20.747 -0.8955 -0.2044 -0.8415
    6AIB   HB11   76  20.290  20.560  20.816 -2.2966 -0.9193 -0.0600
    6AIB   HB12   77  20.283  20.505  20.642  1.2839  0.6277 -0.9646
    6AIB   HB13   78  20.402  20.435  20.751 -0.0340  2.0570  0.6907
    6AIB    CB2   79  20.054  20.432  20.800  0.0898 -0.4677 -0.0595
    6AIB   HB21   80  20.044  20.508  20.881  2.1332 -0.5289  0.3063
    6AIB   HB22   81  19.976  20.354  20.811  0.6485 -1.1153 -0.6094
    6AIB   HB23   82  20.029  20.485  20.705 -1.9912  0.4058  0.9370
    6AIB      C   83  20.196  20.252  20.689  0.5444 -0.6076  0.7689
    6AIB      O   84  20.091  20.225  20.627 -0.1678  0.0753  0.7056
    7AIB      N   85  20.308  20.164  20.687  0.4654  0.7186  0.2602
    7AIB     HN   86  20.374  20.188  20.757  0.4894  3.2683 -0.5290
    7AIB     CA   87  20.340  20.065  20.583 -0.7897 -0.6120  0.2503
    7AIB    CB1   88  20.486  20.017  20.608 -0.6972 -0.4249 -0.4292
    7AIB   HB11   89  20.515  19.957  20.518  0.2990  1.8595 -1.7409
    7AIB   HB12   90  20.490  19.960  20.703 -0.2959  3.1554  1.8271
    7AIB   HB13   91  20.557  20.103  20.608 -0.5951 -0.4971 -1.0283
    7AIB    CB2   92  20.329  20.124  20.439 -0.1535  0.1069 -0.7940
    7AIB   HB21   93  20.381  20.059  20.365 -0.7268 -1.4827  0.1518
    7AIB   HB22   94  20.389  20.217  20.439  0.8313 -0.4810  1.3034
    7AIB   HB23   95  20.224  20.146  20.410  0.5300  2.1034 -1.9212
    7AIB      C   96  20.248  19.939  20.594 -0.7039 -0.9648 -0.8868
    7AIB      O   97  20.209  19.880  20.492 -0.1597 -0.3336  0.0830
    8AIB      N   98  20.208  19.902  20.716 -0.4485  0.1646 -0.4966
    8AIB     HN   99  20.251  19.955  20.788  0.2313 -1.4138  0.3378
    8AIB     CA  100  20.099  19.809  20.750  0.2418  0.3933 -0.2693
    8AIB    CB1  101  20.085  19.796  20.911  0.2254 -0.1384 -0.1788
    8AIB   HB11  102  20.029  19.703  20.933  0.5522 -0.0855  0.9198
    8AIB   HB12  103  20.033  19.879  20.963  1.1380 -1.5207  3.2068
    8AIB   HB13  104  20.183  19.795  20.963  0.7676  0.2144 -1.1510
    8AIB    CB2  105  20.137  19.671  20.691 -0.2308 -0.2366 -0.2641
    8AIB   HB21  106  20.073  19.595  20.741 -0.8106  0.7289  0.5123
    8AIB   HB22  107  20.244  19.643  20.706 -0.6965 -1.3673  1.0839
    8AIB   HB23  108  20.128  19.670  20.581 -0.4817  0.6264 -0.2554
    8AIB      C  109  19.958  19.840  20.694 -0.0177 -0.1148 -0.3937
    8AIB      O  110  19.890  19.760  20.630  0.0232 -0.1532 -0.0628
    9AIB      N  111  19.917  19.968  20.721 -0.3216 -0.0317  0.3623
    9AIB     HN  112  19.978  20.042  20.751 -0.1829  0.7637 -1.7295
    9AIB     CA  113  19.791  20.020  20.680 -0.1224  0.7271  0.5234
    9AIB    CB1  114  19.781  20.172  20.721 -0.5626  0.3270  0.2784
    9AIB   HB11  115  19.861  20.238  20.680 -0.9191  0.8155  0.3662
    9AIB   HB12  116  19.794  20.182  20.831  0.5877 -1.0345  0.2938
    9AIB   HB13  117  19.684  20.215  20.691 -0.0685  0.1363 -1.7217
    9AIB    CB2  118  19.680  19.937  20.741  1.3707 -0.0482 -0.0672
    9AIB   HB21  119  19.667  19.837  20.694  0.6407 -0.3250  0.7027
    9AIB   HB22  120  19.597  20.006  20.717  1.9140  0.5818 -0.1827
    9AIB   HB23  121  19.704  19.922  20.848  1.5970 -0.2917 -0.1474
    9AIB      C  122  19.763  20.016  20.525  0.0712  0.7021 -0.0845
    9AIB      O  123  19.650  19.997  20.471 -0.0065  0.3026 -0.4766
    9AIB     NT  124  19.868  20.035  20.449  0.0075 -0.4081 -0.3505
    9AIB    HNT  125  19.953  20.031  20.500  1.4088 -0.5520 -2.5476
    9AIB    CAT  126  19.865  20.064  20.307 -0.3006 -0.3056  0.0162
    9AIB    HT1  127  19.818  20.162  20.285  2.7243  1.3037  0.1170
    9AIB    HT2  128  19.797  19.992  20.257 -0.5735  1.2465 -1.9793
    9AIB    HT3  129  19.971  20.068  20.275 -0.0829  1.4126  0.8823
  42.09246  42.09246  42.09246
