Protein
   32
    1ACE   HH31    1   9.130   9.298   9.773  1.6133  0.4398  0.4023
    1ACE    CH3    2   9.142   9.347   9.676  0.6495 -0.0660  0.0204
    1ACE   HH32    3   9.082   9.438   9.671  0.7258  0.1347  2.2432
    1ACE   HH33    4   9.110   9.274   9.601 -1.0549 -0.7969  1.3882
    1ACE      C    5   9.284   9.388   9.648  0.0752  0.2606 -0.2933
    1ACE      O    6   9.345   9.347   9.552  0.3990  0.3208 -0.1665
    2ALA      N    7   9.334   9.480   9.732 -0.1088 -0.0639  0.0856
    2ALA      H    8   9.276   9.525   9.802  1.1039  0.2190  0.9419
    2ALA     CA    9   9.473   9.520   9.732 -0.0212 -0.1078  0.4680
    2ALA     HA   10   9.493   9.561   9.633  1.6382  2.1008  1.6111
    2ALA     CB   11   9.484   9.639   9.822 -0.0835 -0.2554 -0.9677
    2ALA    HB1   12   9.589   9.666   9.832 -0.0938 -0.2103 -0.9515
    2ALA    HB2   13   9.439   9.727   9.778 -1.1520 -0.5983 -0.5891
    2ALA    HB3   14   9.437   9.614   9.917 -0.8713  0.2884 -1.2071
    2ALA      C   15   9.578   9.412   9.761 -0.3244  0.4292  0.0265
    2ALA      O   16   9.695   9.439   9.729  0.1620  0.3268 -0.1784
    3ALA      N   17   9.541   9.299   9.817  0.2244 -0.3800  0.0500
    3ALA      H   18   9.442   9.285   9.832  0.1218 -0.6774 -0.8437
    3ALA     CA   19   9.638   9.190   9.843 -0.3485  0.2732 -0.4324
    3ALA     HA   20   9.726   9.198   9.780  0.6208 -0.4767  0.7931
    3ALA     CB   21   9.669   9.214   9.985 -0.2089  1.0446  0.1968
    3ALA    HB1   22   9.731   9.129  10.015 -1.2571 -0.6117 -1.9308
    3ALA    HB2   23   9.728   9.304  10.002 -0.1421  1.2568 -1.0334
    3ALA    HB3   24   9.581   9.213  10.049 -0.4836 -2.6434 -0.0066
    3ALA      C   25   9.576   9.048   9.812 -1.0390 -0.1048  0.2172
    3ALA      O   26   9.459   9.032   9.844 -0.5845  0.1113 -0.6271
    4NME      N   27   9.654   8.960   9.742  0.0747 -0.4656  0.2112
    4NME      H   28   9.747   8.993   9.722  1.0305 -1.2950  2.8242
    4NME    CH3   29   9.608   8.830   9.690  0.7903 -0.5436  0.1491
    4NME   HH31   30   9.683   8.751   9.691  1.8973  0.4857  1.6560
    4NME   HH32   31   9.512   8.790   9.724  0.4341 -0.8225 -1.1660
    4NME   HH33   32   9.581   8.847   9.586  0.5195  0.1895  0.3316
  20.99041  20.99041  20.99041
