Protein
   42
    1ACE   HH31    1   2.560   7.218  12.701 -0.1862  1.0518 -0.2241
    1ACE    CH3    2   2.658   7.258  12.730  0.0701  0.0579  0.3105
    1ACE   HH32    3   2.717   7.177  12.774 -0.4830 -0.2686  0.4548
    1ACE   HH33    4   2.633   7.324  12.812 -2.9599 -1.0684  0.4112
    1ACE      C    5   2.727   7.340  12.618 -0.2419  0.2913 -0.3751
    1ACE      O    6   2.823   7.408  12.645 -0.1712  0.0343  0.1348
    2ALA      N    7   2.700   7.309  12.492 -0.4608 -1.0561  0.5140
    2ALA      H    8   2.619   7.251  12.474 -1.3535 -0.3914  2.2338
    2ALA     CA    9   2.778   7.356  12.376 -0.0386 -0.0602 -0.5560
    2ALA     HA   10   2.885   7.348  12.393  0.0275 -0.8336 -1.2434
    2ALA     CB   11   2.742   7.247  12.273 -0.1171 -0.2838 -0.2915
    2ALA    HB1   12   2.773   7.284  12.175 -1.5801  0.6394 -0.4289
    2ALA    HB2   13   2.800   7.157  12.293  2.0247  1.3651  1.4162
    2ALA    HB3   14   2.635   7.231  12.264 -0.6252  2.3240  0.0988
    2ALA      C   15   2.752   7.503  12.336  0.4265 -0.0612 -0.4371
    2ALA      O   16   2.830   7.556  12.252 -0.1702 -0.0305 -0.6071
    3ALA      N   17   2.648   7.568  12.388 -0.7399  0.3632 -0.0995
    3ALA      H   18   2.588   7.505  12.439 -0.9833  0.2092 -0.5773
    3ALA     CA   19   2.583   7.700  12.376 -0.3528  0.8414  0.3120
    3ALA     HA   20   2.561   7.730  12.478 -0.1529 -0.5570  0.7853
    3ALA     CB   21   2.690   7.800  12.312 -0.3268  0.6879 -0.4200
    3ALA    HB1   22   2.648   7.900  12.323 -0.3064  0.5453  1.2210
    3ALA    HB2   23   2.784   7.792  12.367 -0.8355  2.1056  0.7298
    3ALA    HB3   24   2.703   7.773  12.208 -0.3628 -0.2063 -0.2081
    3ALA      C   25   2.450   7.692  12.301  0.6828  0.6135 -0.3623
    3ALA      O   26   2.402   7.589  12.254 -0.4154 -0.3942 -0.1721
    4ALA      N   27   2.398   7.811  12.271 -0.8542  0.4087 -0.3322
    4ALA      H   28   2.447   7.897  12.287 -0.9388  1.1599 -3.3404
    4ALA     CA   29   2.282   7.829  12.186  0.0735  0.2000  0.3628
    4ALA     HA   30   2.293   7.782  12.088  1.8048 -1.5377  1.3227
    4ALA     CB   31   2.158   7.769  12.256 -0.1660  0.0529  0.3154
    4ALA    HB1   32   2.154   7.826  12.348  0.7921  0.2699  0.2387
    4ALA    HB2   33   2.071   7.792  12.195  0.2444 -2.2855 -1.2985
    4ALA    HB3   34   2.159   7.664  12.285  0.0263  0.5655  2.2936
    4ALA      C   35   2.251   7.981  12.179  0.3679 -0.3624  0.3733
    4ALA      O   36   2.308   8.056  12.261  0.5947 -0.3242 -0.0382
    5NME      N   37   2.172   8.015  12.070  0.3157 -0.1191 -0.0807
    5NME      H   38   2.152   7.940  12.005  0.5686 -0.2572 -0.0011
    5NME    CH3   39   2.134   8.154  12.044  0.1347 -0.1815 -0.5149
    5NME   HH31   40   2.100   8.180  11.944 -2.2967  3.3352  1.0148
    5NME   HH32   41   2.055   8.187  12.112  2.7430  2.0111  1.7318
    5NME   HH33   42   2.221   8.210  12.078  2.0957 -2.3695 -1.6317
  20.91516  20.91516  20.91516
