Protein
   42
    1ACE   HH31    1   1.966   9.043   7.903 -3.5875 -0.7588 -2.7551
    1ACE    CH3    2   1.897   9.051   7.986 -0.0911  0.2178  0.3450
    1ACE   HH32    3   1.941   9.094   8.076  1.2242 -2.3915  1.0920
    1ACE   HH33    4   1.880   8.945   8.010 -2.5764  0.4580 -0.0230
    1ACE      C    5   1.761   9.108   7.952  0.2651 -1.2952 -0.0273
    1ACE      O    6   1.754   9.229   7.967  0.0111  0.1873 -0.4692
    2ALA      N    7   1.659   9.034   7.913  0.4824 -0.6451  0.4360
    2ALA      H    8   1.676   8.934   7.913 -0.4761 -0.8079  0.1057
    2ALA     CA    9   1.534   9.078   7.860 -0.5462 -0.4548 -0.8605
    2ALA     HA   10   1.558   9.178   7.825 -1.4873  0.4713  0.9856
    2ALA     CB   11   1.493   8.996   7.739 -0.1687  0.4343  0.0214
    2ALA    HB1   12   1.465   8.894   7.767  0.0758  0.1266 -0.8121
    2ALA    HB2   13   1.402   9.036   7.693 -0.7116  1.8992  2.1961
    2ALA    HB3   14   1.577   8.998   7.670  0.8751 -2.7426  1.0331
    2ALA      C   15   1.430   9.081   7.969 -0.2631  0.0307 -0.3274
    2ALA      O   16   1.391   8.978   8.019 -0.2009 -0.4530 -0.3386
    3ALA      N   17   1.360   9.191   7.999  0.1081  0.0221 -0.3555
    3ALA      H   18   1.301   9.166   8.077  2.7573 -0.2163  1.7228
    3ALA     CA   19   1.407   9.328   8.000 -0.9510 -0.2804  0.0547
    3ALA     HA   20   1.489   9.335   7.928  0.0459  1.1016  1.2729
    3ALA     CB   21   1.297   9.422   7.948  0.0034 -0.8503 -0.1567
    3ALA    HB1   22   1.216   9.433   8.021  0.3237 -1.4010  0.2999
    3ALA    HB2   23   1.350   9.516   7.937  0.4073 -0.8784  1.2882
    3ALA    HB3   24   1.255   9.386   7.855 -0.5059 -0.0375 -0.2522
    3ALA      C   25   1.447   9.359   8.148 -0.0623  0.9076  0.1120
    3ALA      O   26   1.357   9.380   8.230 -0.4594  0.5924  0.1553
    4ALA      N   27   1.581   9.373   8.165 -0.0283 -0.3206 -0.0086
    4ALA      H   28   1.642   9.361   8.086 -1.7160  0.3300 -1.4867
    4ALA     CA   29   1.644   9.385   8.299  0.3826 -0.4087 -0.1599
    4ALA     HA   30   1.562   9.359   8.365 -0.8396 -0.0204 -1.4538
    4ALA     CB   31   1.768   9.290   8.307  0.5510  0.0990  0.3317
    4ALA    HB1   32   1.822   9.318   8.217  0.7402  1.7136  0.9152
    4ALA    HB2   33   1.830   9.321   8.391 -0.2731  0.2778  0.8822
    4ALA    HB3   34   1.737   9.185   8.315  1.6670 -0.1369  1.8594
    4ALA      C   35   1.658   9.537   8.357 -0.8550  0.3453  0.5221
    4ALA      O   36   1.735   9.555   8.449 -0.7704  0.1927 -0.1427
    5NME      N   37   1.598   9.633   8.287  0.3012 -0.4305 -0.6736
    5NME      H   38   1.563   9.604   8.197 -3.5938 -1.6087  0.9999
    5NME    CH3   39   1.571   9.772   8.320  0.4111 -0.4131  0.5120
    5NME   HH31   40   1.589   9.790   8.426  3.3094 -1.4625  0.2724
    5NME   HH32   41   1.630   9.839   8.258  1.0285 -1.6669 -0.3211
    5NME   HH33   42   1.465   9.786   8.297  0.7345  0.4496 -0.5205
  20.91516  20.91516  20.91516
