Protein
   42
    1ACE   HH31    1  12.219   7.341   6.741 -2.3913  0.4065  1.3608
    1ACE    CH3    2  12.265   7.332   6.840 -0.1368  0.0890  0.3433
    1ACE   HH32    3  12.187   7.348   6.914 -0.5085  0.3432 -0.0921
    1ACE   HH33    4  12.350   7.400   6.836 -0.2229  0.2118  0.5721
    1ACE      C    5  12.327   7.192   6.856 -0.7247  0.1439 -0.2399
    1ACE      O    6  12.286   7.118   6.943  0.0115  0.3645  0.1358
    2ALA      N    7  12.434   7.158   6.779  0.1304  0.1196  0.8200
    2ALA      H    8  12.460   7.224   6.707  0.5590  0.0575  0.9095
    2ALA     CA    9  12.486   7.019   6.764 -0.8148 -0.2376 -0.3419
    2ALA     HA   10  12.465   6.964   6.855  1.0499 -1.4690 -0.5905
    2ALA     CB   11  12.413   6.963   6.642  0.1815 -0.0489 -0.0470
    2ALA    HB1   12  12.436   6.858   6.622  1.9403  0.6357 -1.9154
    2ALA    HB2   13  12.306   6.984   6.646  0.3401  2.0195 -3.2415
    2ALA    HB3   14  12.449   7.018   6.556  0.3052 -0.8030 -0.4941
    2ALA      C   15  12.641   7.019   6.741 -0.0259 -0.3357 -0.2150
    2ALA      O   16  12.697   7.115   6.686 -0.5045 -0.1739  0.0321
    3ALA      N   17  12.706   6.902   6.770  0.4672 -0.2313  0.0227
    3ALA      H   18  12.655   6.821   6.803  0.6650 -1.0049 -1.4803
    3ALA     CA   19  12.845   6.869   6.782 -0.3419 -0.0065  0.1505
    3ALA     HA   20  12.852   6.829   6.883  2.1405 -2.3785 -0.8125
    3ALA     CB   21  12.870   6.750   6.689 -0.4223  0.7540  0.6123
    3ALA    HB1   22  12.962   6.699   6.717 -0.6496  0.2110  0.3840
    3ALA    HB2   23  12.787   6.680   6.701 -0.1175  0.1981 -0.4046
    3ALA    HB3   24  12.883   6.782   6.586  1.8994  0.3545  0.7113
    3ALA      C   25  12.947   6.978   6.780  0.6060  0.2968 -0.5682
    3ALA      O   26  13.040   6.972   6.696  0.6956  0.2949  0.4340
    4ALA      N   27  12.924   7.083   6.856  0.3770 -0.3617  0.6789
    4ALA      H   28  12.850   7.092   6.924 -0.4979  2.6761 -0.4997
    4ALA     CA   29  12.999   7.212   6.857  0.5648 -0.2312  0.4404
    4ALA     HA   30  13.084   7.201   6.790 -1.0990  2.1256 -2.3110
    4ALA     CB   31  12.913   7.324   6.797  0.9623 -0.6397  0.7826
    4ALA    HB1   32  12.969   7.417   6.805  2.6822 -1.4926 -0.6183
    4ALA    HB2   33  12.880   7.300   6.697 -2.8016  0.5920  1.5999
    4ALA    HB3   34  12.828   7.328   6.865 -0.3875  0.5298 -0.9164
    4ALA      C   35  13.042   7.245   7.002  0.0683  1.2898 -1.0732
    4ALA      O   36  12.986   7.195   7.102  0.2972 -0.2638  0.3682
    5NME      N   37  13.154   7.321   7.021  0.3160 -0.1933 -0.6133
    5NME      H   38  13.215   7.347   6.945 -0.2242  0.7398 -0.7490
    5NME    CH3   39  13.203   7.350   7.152 -0.3105 -0.0374 -0.3638
    5NME   HH31   40  13.292   7.414   7.148  0.0413 -0.1169  3.0724
    5NME   HH32   41  13.129   7.400   7.213 -0.6249 -0.3538 -0.4887
    5NME   HH33   42  13.212   7.257   7.208 -0.6826 -0.3946 -0.8808
  20.91516  20.91516  20.91516
