Protein
   42
    1ACE   HH31    1  17.514   6.958  11.529 -2.9576  0.5391  0.6466
    1ACE    CH3    2  17.498   6.976  11.422 -0.2738 -0.5429 -0.0160
    1ACE   HH32    3  17.534   7.076  11.398  0.3224 -0.6992  0.2134
    1ACE   HH33    4  17.390   6.975  11.407 -0.3925  0.4964  0.5358
    1ACE      C    5  17.557   6.867  11.334 -0.7097  0.5798 -0.3680
    1ACE      O    6  17.630   6.894  11.241 -0.2939 -0.1210 -0.4033
    2ALA      N    7  17.525   6.740  11.371  0.0955 -0.0366 -0.5352
    2ALA      H    8  17.463   6.724  11.450  0.3038 -1.9859 -0.7269
    2ALA     CA    9  17.561   6.623  11.297  0.1516  0.7925  0.8458
    2ALA     HA   10  17.515   6.641  11.200  0.3195 -2.4266  0.0620
    2ALA     CB   11  17.717   6.613  11.306 -0.6358 -0.9472  0.6318
    2ALA    HB1   12  17.768   6.684  11.241  0.6230  1.0938  3.6231
    2ALA    HB2   13  17.759   6.635  11.404  0.9956 -0.6232 -0.1082
    2ALA    HB3   14  17.742   6.511  11.280  0.5551 -0.2773 -1.1173
    2ALA      C   15  17.493   6.504  11.378  0.0691 -0.4069  0.3660
    2ALA      O   16  17.510   6.493  11.497  0.6201 -0.1126 -0.0694
    3ALA      N   17  17.419   6.413  11.315 -0.5791 -0.0271  0.3238
    3ALA      H   18  17.363   6.348  11.367  2.3587 -2.6852  0.4197
    3ALA     CA   19  17.418   6.398  11.171 -0.4405 -0.5038 -0.3120
    3ALA     HA   20  17.517   6.395  11.127 -0.8806 -0.8851 -1.3229
    3ALA     CB   21  17.373   6.259  11.142 -0.2779 -0.5382 -0.3816
    3ALA    HB1   22  17.270   6.252  11.179 -0.1649 -0.7343 -0.1022
    3ALA    HB2   23  17.377   6.238  11.035 -2.0811  0.6463 -0.7326
    3ALA    HB3   24  17.428   6.184  11.199 -0.2643  0.9905  1.7511
    3ALA      C   25  17.332   6.507  11.105  0.9495  0.3592 -0.2715
    3ALA      O   26  17.335   6.521  10.980 -0.2320  0.3505 -0.1536
    4ALA      N   27  17.248   6.588  11.175  0.2345  0.3211  0.1412
    4ALA      H   28  17.254   6.575  11.275  1.4975  1.0099  0.1675
    4ALA     CA   29  17.176   6.708  11.123  0.5282 -0.9938 -0.4274
    4ALA     HA   30  17.213   6.744  11.027 -2.3321 -0.2347 -1.3209
    4ALA     CB   31  17.032   6.672  11.092  0.0445  0.2821  0.3119
    4ALA    HB1   32  16.981   6.674  11.188  0.0625  1.8498  0.3206
    4ALA    HB2   33  16.999   6.748  11.021  2.1357 -0.5784 -1.7006
    4ALA    HB3   34  17.030   6.570  11.054 -1.7940  0.3939  0.0282
    4ALA      C   35  17.184   6.826  11.223 -0.2232 -0.1138  0.0267
    4ALA      O   36  17.220   6.812  11.339  0.2499  0.3506 -0.3848
    5NME      N   37  17.127   6.943  11.185  0.0903 -0.4689 -0.4560
    5NME      H   38  17.091   6.951  11.091  0.7601 -1.9103 -0.8784
    5NME    CH3   39  17.138   7.068  11.266  0.8348 -0.6914  0.4387
    5NME   HH31   40  17.064   7.083  11.344  0.6698 -3.0842  0.8227
    5NME   HH32   41  17.241   7.064  11.300  1.2938  1.7196 -0.5285
    5NME   HH33   42  17.136   7.152  11.196  2.3810 -0.6818  0.3718
  20.91516  20.91516  20.91516
