Protein
   60
    1ACE   HH31    1  19.711  20.540  19.928  0.5428 -0.8176 -2.0962
    1ACE    CH3    2  19.607  20.545  19.894 -0.1322 -0.4904 -0.1702
    1ACE   HH32    3  19.615  20.514  19.789  1.8792 -1.5446  0.2390
    1ACE   HH33    4  19.533  20.475  19.930 -1.0585 -0.4006 -1.8481
    1ACE      C    5  19.556  20.687  19.908  0.3971 -0.1422 -0.0525
    1ACE      O    6  19.632  20.762  19.965  0.0139  0.4931 -0.4380
    2TRP      N    7  19.433  20.710  19.865  0.4120 -0.7780 -0.0788
    2TRP      H    8  19.399  20.804  19.885  0.8908 -0.5610 -0.2692
    2TRP     CA    9  19.326  20.616  19.817 -0.1496  0.1221  0.6935
    2TRP     HA   10  19.354  20.518  19.856  0.7759  0.5794  1.2310
    2TRP     CB   11  19.196  20.663  19.875 -0.7688 -0.5845 -0.5539
    2TRP    HB1   12  19.195  20.656  19.984  0.2297  1.5296 -0.3661
    2TRP    HB2   13  19.119  20.590  19.849 -2.2958  0.0668  1.7692
    2TRP     CG   14  19.147  20.802  19.847 -0.4924 -0.4813  0.0755
    2TRP    CD1   15  19.060  20.825  19.744  0.8768  0.0175  0.4254
    2TRP    HD1   16  19.016  20.748  19.683 -2.0856  0.0546  2.3634
    2TRP    NE1   17  19.036  20.962  19.738 -0.1643  0.6075 -0.5347
    2TRP    HE1   18  18.977  21.002  19.667 -0.3719 -3.3957 -2.8952
    2TRP    CE2   19  19.130  21.037  19.814 -0.7257 -0.5895  0.6241
    2TRP    CZ2   20  19.170  21.168  19.826 -0.2179 -0.6454 -0.1034
    2TRP    HZ2   21  19.140  21.237  19.749  0.0077 -2.0649 -1.5032
    2TRP    CH2   22  19.257  21.204  19.924 -0.0063 -0.7254 -0.9324
    2TRP    HH2   23  19.284  21.307  19.939 -0.4771 -0.6286 -0.7422
    2TRP    CZ3   24  19.313  21.110  20.011  0.2133  0.0356 -0.0037
    2TRP    HZ3   25  19.382  21.138  20.089 -0.7212  1.8814  0.2266
    2TRP    CE3   26  19.286  20.977  19.990 -0.0827  0.6285  0.3324
    2TRP    HE3   27  19.322  20.907  20.064 -1.0834  0.4709  0.6739
    2TRP    CD2   28  19.193  20.934  19.890 -0.6734 -0.5506 -0.0181
    2TRP      C   29  19.324  20.577  19.665  0.2614  0.1896  0.6498
    2TRP      O   30  19.266  20.470  19.640 -0.1528  0.3087 -0.1327
    3TRP      N   31  19.385  20.650  19.577 -0.3978 -0.2225  0.2241
    3TRP      H   32  19.391  20.602  19.489  1.3642  3.1292 -1.6862
    3TRP     CA   33  19.399  20.794  19.572  0.2481 -0.0337  0.0449
    3TRP     HA   34  19.323  20.836  19.637 -0.5828  0.6032 -1.2749
    3TRP     CB   35  19.360  20.847  19.434  0.0276  0.2997 -0.1616
    3TRP    HB1   36  19.448  20.852  19.369 -1.1154  0.8463 -1.7309
    3TRP    HB2   37  19.294  20.775  19.385 -1.5675  1.2606  0.5113
    3TRP     CG   38  19.286  20.984  19.426 -0.0065  0.2272 -0.1769
    3TRP    CD1   39  19.344  21.102  19.416  0.6396  0.3554 -0.0993
    3TRP    HD1   40  19.452  21.114  19.410  0.3881  2.4010 -2.9308
    3TRP    NE1   41  19.259  21.204  19.439 -0.3539  0.3740  0.2120
    3TRP    HE1   42  19.288  21.300  19.452  0.7623 -0.0808  1.3761
    3TRP    CE2   43  19.130  21.162  19.453 -0.0550  0.2327 -0.2215
    3TRP    CZ2   44  19.008  21.226  19.461 -0.5358 -0.3733  0.6368
    3TRP    HZ2   45  19.010  21.329  19.492 -0.6250 -0.9743  2.7295
    3TRP    CH2   46  18.887  21.161  19.457  0.4947 -0.2176  0.3509
    3TRP    HH2   47  18.791  21.210  19.463  0.8383  0.7306 -1.2020
    3TRP    CZ3   48  18.891  21.022  19.426  0.6925  0.3051  0.4199
    3TRP    HZ3   49  18.807  20.964  19.392  1.6587 -0.5487 -0.6018
    3TRP    CE3   50  19.012  20.955  19.417 -0.7478 -0.5460  0.7749
    3TRP    HE3   51  19.014  20.851  19.388  1.2102 -0.4762  0.4608
    3TRP    CD2   52  19.139  21.020  19.438  0.2236 -1.0987  0.0772
    3TRP      C   53  19.536  20.842  19.603 -0.1023 -0.1578  0.4416
    3TRP      O   54  19.630  20.770  19.598 -0.9186  0.2989 -0.1188
    4NME      N   55  19.537  20.971  19.651 -0.6686  0.2088  0.9578
    4NME      H   56  19.450  21.022  19.653 -2.0998 -1.9360 -0.5420
    4NME    CH3   57  19.657  21.016  19.711 -0.1166 -0.9005 -0.9721
    4NME   HH31   58  19.638  21.103  19.774 -0.3049 -0.4531 -1.6324
    4NME   HH32   59  19.694  20.937  19.777 -1.6052 -0.1619  0.8278
    4NME   HH33   60  19.731  21.053  19.640  0.8892  1.1169  1.0025
  41.12396  41.12396  41.12396
