Protein
   32
    1ACE   HH31    1  11.314  12.129  11.923 -1.5859 -3.1494  2.8583
    1ACE    CH3    2  11.296  12.062  11.838  0.0167  0.3951 -0.6274
    1ACE   HH32    3  11.235  11.982  11.881 -0.6017  2.1706  2.0959
    1ACE   HH33    4  11.388  12.022  11.796  1.2701 -0.1557  2.3680
    1ACE      C    5  11.232  12.137  11.729 -0.7114  0.7950  0.4292
    1ACE      O    6  11.283  12.145  11.612  0.0389  0.3058 -0.6104
    2ALA      N    7  11.118  12.207  11.755 -0.0742 -0.2775  0.0651
    2ALA      H    8  11.075  12.201  11.846  1.1403 -0.9563  0.6111
    2ALA     CA    9  11.053  12.308  11.667  0.0813  0.0974 -0.0133
    2ALA     HA   10  11.012  12.250  11.585 -0.5311  2.9704 -1.8814
    2ALA     CB   11  10.937  12.387  11.744  1.0360  0.2282 -0.4349
    2ALA    HB1   12  10.891  12.458  11.675  1.9863 -0.1800 -1.5374
    2ALA    HB2   13  10.860  12.315  11.769 -1.5788  3.4939  1.7817
    2ALA    HB3   14  10.972  12.443  11.831  2.2747  0.2617 -0.9272
    2ALA      C   15  11.152  12.408  11.603  0.3659  0.1607  0.5853
    2ALA      O   16  11.177  12.409  11.481  0.3464  0.4880 -0.1193
    3ALA      N   17  11.188  12.510  11.679  0.5240 -1.0899  0.6699
    3ALA      H   18  11.131  12.527  11.761 -1.8606  2.7860 -1.4749
    3ALA     CA   19  11.299  12.608  11.653 -0.2595  0.2288  0.6111
    3ALA     HA   20  11.285  12.653  11.555 -0.2031 -0.2613  0.3767
    3ALA     CB   21  11.287  12.723  11.752 -0.6295 -0.4324 -0.2459
    3ALA    HB1   22  11.384  12.771  11.758  0.3701 -2.4006 -0.0465
    3ALA    HB2   23  11.220  12.801  11.715  1.7913  1.2876 -1.2504
    3ALA    HB3   24  11.273  12.683  11.853  2.1656 -0.4602  0.2236
    3ALA      C   25  11.436  12.534  11.670 -0.1058  0.2881 -0.2238
    3ALA      O   26  11.489  12.526  11.783  0.0776 -0.0738 -0.8145
    4NME      N   27  11.488  12.480  11.559  0.1485 -0.2382 -0.1926
    4NME      H   28  11.420  12.479  11.485  0.9359  1.5060 -1.0170
    4NME    CH3   29  11.581  12.366  11.567 -0.2059 -0.1956  0.7490
    4NME   HH31   30  11.600  12.336  11.464  0.8426  0.4039  0.7492
    4NME   HH32   31  11.680  12.389  11.607 -0.1505  2.7771 -0.8092
    4NME   HH33   32  11.541  12.280  11.620 -1.9232 -0.3957 -0.7939
  20.99041  20.99041  20.99041
