Protein
   42
    1ACE   HH31    1   9.085   5.266   4.368  1.7325  0.3137 -0.8731
    1ACE    CH3    2   9.054   5.319   4.279 -0.0154  0.4336 -0.2260
    1ACE   HH32    3   9.043   5.254   4.191  0.0923 -0.3471  0.3261
    1ACE   HH33    4   9.129   5.394   4.257  2.1449 -1.8104 -0.9464
    1ACE      C    5   8.926   5.385   4.317 -0.1740 -0.4097  0.0567
    1ACE      O    6   8.917   5.439   4.426 -0.1386 -0.6349 -0.4322
    2ALA      N    7   8.827   5.375   4.229 -0.4137 -0.2697  0.4900
    2ALA      H    8   8.847   5.326   4.143 -1.3203 -4.6371  2.5048
    2ALA     CA    9   8.688   5.423   4.241  0.2773 -0.0755 -0.2314
    2ALA     HA   10   8.673   5.495   4.160  0.8644 -0.2154 -0.4751
    2ALA     CB   11   8.600   5.298   4.207  0.3684 -0.0153  0.1103
    2ALA    HB1   12   8.498   5.332   4.186  0.7546 -0.2370 -2.4517
    2ALA    HB2   13   8.638   5.249   4.118  0.1378  3.4430 -2.0813
    2ALA    HB3   14   8.591   5.234   4.295  0.2765 -1.9062 -1.2174
    2ALA      C   15   8.654   5.496   4.372 -0.3811  0.1504 -0.2347
    2ALA      O   16   8.614   5.426   4.467  0.1048 -0.6055 -0.3624
    3ALA      N   17   8.680   5.632   4.383 -0.3469 -0.4262 -0.3949
    3ALA      H   18   8.672   5.674   4.475 -1.3359  2.8700 -1.8449
    3ALA     CA   19   8.686   5.732   4.281  0.9156  0.2041  0.2373
    3ALA     HA   20   8.623   5.700   4.197  0.0664 -4.3847  2.3168
    3ALA     CB   21   8.624   5.861   4.335 -0.5974 -0.3355  0.1156
    3ALA    HB1   22   8.636   5.947   4.268 -0.3253 -0.3527  0.1419
    3ALA    HB2   23   8.525   5.837   4.374  0.1689 -2.1087  1.0228
    3ALA    HB3   24   8.690   5.895   4.414 -1.6944  2.5205 -0.0883
    3ALA      C   25   8.824   5.755   4.210 -0.0670  0.4024  0.3447
    3ALA      O   26   8.830   5.830   4.108  0.0814  0.4700  0.3018
    4ALA      N   27   8.933   5.697   4.265  0.6821 -0.9129 -0.2675
    4ALA      H   28   8.918   5.637   4.344 -4.2314  2.3112  1.6496
    4ALA     CA   29   9.064   5.725   4.210  0.8306 -0.5230 -0.0181
    4ALA     HA   30   9.051   5.824   4.165 -1.0636 -0.5556  0.3418
    4ALA     CB   31   9.169   5.740   4.322  0.0985 -0.0245  0.2254
    4ALA    HB1   32   9.260   5.765   4.268 -1.3276 -0.2677 -2.5097
    4ALA    HB2   33   9.146   5.819   4.394  0.9399  0.7869 -0.3593
    4ALA    HB3   34   9.192   5.647   4.373  0.3851  1.3259  2.7496
    4ALA      C   35   9.103   5.637   4.090 -0.6583  0.2239 -0.0760
    4ALA      O   36   9.190   5.556   4.094 -0.2614 -0.1444  0.1133
    5NME      N   37   9.026   5.648   3.979  0.1464 -0.4043  0.0081
    5NME      H   38   8.955   5.719   3.985 -0.5592 -1.1173  0.2799
    5NME    CH3   39   9.041   5.561   3.865 -0.1357 -0.6079 -0.0190
    5NME   HH31   40   9.144   5.526   3.853 -0.2686 -0.5391 -1.5412
    5NME   HH32   41   8.985   5.468   3.874  1.1515 -1.4150 -0.1441
    5NME   HH33   42   9.021   5.615   3.773  2.0754 -2.5947 -1.7907
  20.91516  20.91516  20.91516
