Protein
   42
    1ACE   HH31    1  12.551   5.986  10.542  1.2110  0.0193 -0.2948
    1ACE    CH3    2  12.560   5.922  10.630 -0.1580 -0.4377 -0.4645
    1ACE   HH32    3  12.551   5.814  10.616 -2.9278 -0.8732  3.0283
    1ACE   HH33    4  12.473   5.940  10.694 -1.3719 -0.4607 -2.0525
    1ACE      C    5  12.689   5.963  10.699 -0.1252  0.9283  0.5144
    1ACE      O    6  12.758   6.049  10.643 -0.1597 -0.5647  0.3060
    2ALA      N    7  12.730   5.899  10.809  0.5163 -0.5049 -0.0601
    2ALA      H    8  12.669   5.840  10.864  2.2151 -2.4360 -0.1030
    2ALA     CA    9  12.868   5.904  10.858 -0.8059 -0.1534  0.2091
    2ALA     HA   10  12.931   5.946  10.779 -0.5735  0.5507  0.7667
    2ALA     CB   11  12.872   5.999  10.981  0.7036 -0.0926  0.0733
    2ALA    HB1   12  12.976   6.001  11.013  1.2456  0.9671 -1.6598
    2ALA    HB2   13  12.830   6.097  10.959 -1.6747 -1.1780 -0.5863
    2ALA    HB3   14  12.815   5.957  11.064  0.6090  0.2382  0.1776
    2ALA      C   15  12.936   5.762  10.883 -0.4297 -1.1324  0.3566
    2ALA      O   16  13.003   5.742  10.980  0.2778  0.1114  0.1970
    3ALA      N   17  12.915   5.656  10.812  0.4885 -0.5126 -0.1257
    3ALA      H   18  12.966   5.577  10.850  1.7920  1.4651  2.6066
    3ALA     CA   19  12.867   5.646  10.675 -0.6882  0.6802 -0.1669
    3ALA     HA   20  12.836   5.741  10.632  0.1616  0.5273 -1.1342
    3ALA     CB   21  12.980   5.590  10.586  0.0392  0.2860  0.0986
    3ALA    HB1   22  13.002   5.488  10.617 -0.6588  0.3529  0.8854
    3ALA    HB2   23  12.943   5.595  10.484  1.3798 -1.4571 -0.5065
    3ALA    HB3   24  13.068   5.654  10.596 -0.9796  1.8314 -0.4161
    3ALA      C   25  12.738   5.557  10.671  0.0419 -0.2933  0.7837
    3ALA      O   26  12.699   5.501  10.567 -0.4763 -0.0386  0.2005
    4ALA      N   27  12.677   5.535  10.786  0.5854 -0.1496  0.5871
    4ALA      H   28  12.726   5.578  10.864  0.3841 -0.1960  0.7418
    4ALA     CA   29  12.547   5.473  10.811 -0.4597  0.1932  0.5190
    4ALA     HA   30  12.507   5.426  10.721  0.4374  0.8283 -0.2293
    4ALA     CB   31  12.557   5.363  10.912  0.1841  0.2212  0.2654
    4ALA    HB1   32  12.584   5.401  11.010 -0.3984  1.0151  0.1303
    4ALA    HB2   33  12.462   5.310  10.910  0.6687 -0.9319  2.8864
    4ALA    HB3   34  12.632   5.288  10.884 -1.3768 -2.0688  1.8177
    4ALA      C   35  12.457   5.589  10.860 -0.2279  0.0764  0.1015
    4ALA      O   36  12.501   5.703  10.854 -0.0643 -0.3134 -0.4027
    5NME      N   37  12.333   5.566  10.900  0.5057  1.1277  0.5496
    5NME      H   38  12.296   5.472  10.907 -1.1506  1.7898  1.5578
    5NME    CH3   39  12.239   5.667  10.947 -0.9484  0.2832  0.0262
    5NME   HH31   40  12.264   5.765  10.907 -0.2318  0.1314  0.0692
    5NME   HH32   41  12.136   5.643  10.921 -0.9867  0.5248 -0.0344
    5NME   HH33   42  12.239   5.670  11.056 -1.1807  0.2889  0.0265
  20.91516  20.91516  20.91516
