Protein
   32
    1ACE   HH31    1  12.655   9.790   7.111  0.8900  0.2174  0.5354
    1ACE    CH3    2  12.586   9.835   7.183 -0.0039 -0.4096  0.1024
    1ACE   HH32    3  12.629   9.812   7.280 -0.0697  1.5738  0.6343
    1ACE   HH33    4  12.485   9.793   7.177 -0.0417 -0.5802  1.5486
    1ACE      C    5  12.572   9.984   7.176 -0.7291 -0.6263 -0.2818
    1ACE      O    6  12.588  10.057   7.275 -0.0829  0.4136  0.0225
    2ALA      N    7  12.560  10.036   7.052  0.5315 -0.1275  0.3963
    2ALA      H    8  12.568   9.975   6.972 -1.4164  0.4920 -0.3505
    2ALA     CA    9  12.526  10.174   7.021  0.0819  0.5209  0.8053
    2ALA     HA   10  12.621  10.226   7.009  1.3529 -2.0464 -1.1459
    2ALA     CB   11  12.439  10.178   6.897  0.5049 -0.4651 -0.2639
    2ALA    HB1   12  12.343  10.130   6.913 -0.3763  1.0425 -0.7649
    2ALA    HB2   13  12.421  10.282   6.870  0.3665  0.3158  2.5565
    2ALA    HB3   14  12.478  10.116   6.817 -4.9292 -2.3540 -1.8779
    2ALA      C   15  12.448  10.255   7.126 -0.0078 -0.7294 -0.0401
    2ALA      O   16  12.477  10.375   7.148 -0.5971  0.7139  0.4161
    3ALA      N   17  12.344  10.190   7.183  0.3279 -0.4304  0.0624
    3ALA      H   18  12.328  10.095   7.153  1.1077 -0.3019 -0.8536
    3ALA     CA   19  12.240  10.264   7.253 -0.2961 -0.2233  0.2878
    3ALA     HA   20  12.224  10.367   7.221  2.3466  1.0177  2.5134
    3ALA     CB   21  12.110  10.185   7.221 -0.2470 -0.4695 -0.0773
    3ALA    HB1   22  12.020  10.238   7.254  0.2085 -0.6676  1.5495
    3ALA    HB2   23  12.104  10.176   7.112  3.0572  1.5711 -0.5638
    3ALA    HB3   24  12.111  10.094   7.280  0.3444  0.3610  1.2284
    3ALA      C   25  12.265  10.289   7.407 -0.2332  0.1626 -0.1482
    3ALA      O   26  12.174  10.338   7.471  0.5796 -0.1943  0.4687
    4NME      N   27  12.384  10.243   7.456 -0.5969  0.1956  0.6635
    4NME      H   28  12.452  10.210   7.389  1.1981 -0.9998  2.9382
    4NME    CH3   29  12.422  10.265   7.597  0.6638  0.2683 -0.0707
    4NME   HH31   30  12.529  10.289   7.601  1.3615 -2.4030 -0.4255
    4NME   HH32   31  12.365  10.350   7.633  3.2788  1.8252  0.6077
    4NME   HH33   32  12.398  10.179   7.658  2.9238  0.8274  1.7457
  20.99041  20.99041  20.99041
