Protein
   32
    1ACE   HH31    1   9.217  10.997   6.710 -2.0343  0.7161  1.9666
    1ACE    CH3    2   9.205  11.105   6.718 -0.3647  1.0567  0.3863
    1ACE   HH32    3   9.207  11.146   6.617 -2.2772 -1.1374 -0.6075
    1ACE   HH33    4   9.289  11.134   6.780  0.5269 -2.1422  0.8699
    1ACE      C    5   9.071  11.139   6.788 -0.4543 -0.2566 -0.5649
    1ACE      O    6   9.073  11.221   6.883  0.0146  0.7285 -0.0810
    2ALA      N    7   8.963  11.082   6.746  0.2589  0.3575 -0.6588
    2ALA      H    8   8.972  11.022   6.665  0.2764 -1.5838  0.6943
    2ALA     CA    9   8.831  11.112   6.799 -0.1923 -0.9455 -0.6658
    2ALA     HA   10   8.845  11.184   6.879  1.1682 -0.8709 -0.9258
    2ALA     CB   11   8.753  11.168   6.685  0.1090  0.2681  0.0873
    2ALA    HB1   12   8.660  11.211   6.723 -0.4381  0.6928 -1.6136
    2ALA    HB2   13   8.814  11.234   6.624 -0.1554 -0.9455 -1.5638
    2ALA    HB3   14   8.732  11.082   6.620  1.9292 -1.1205  1.2563
    2ALA      C   15   8.759  11.000   6.870 -0.1904  1.0706  0.1418
    2ALA      O   16   8.636  10.992   6.877  0.1449 -0.4991  0.0341
    3ALA      N   17   8.836  10.903   6.917  0.1825 -0.0178  0.8219
    3ALA      H   18   8.931  10.915   6.885 -0.5782  1.3215 -1.1694
    3ALA     CA   19   8.797  10.782   6.983  0.3187 -0.3302 -0.1037
    3ALA     HA   20   8.703  10.748   6.940  1.0974  0.4612 -2.5798
    3ALA     CB   21   8.900  10.678   6.963  0.0588  0.8685  0.5136
    3ALA    HB1   22   8.965  10.669   7.049 -1.1660 -1.6078  1.2476
    3ALA    HB2   23   8.856  10.578   6.965 -1.4948  1.5282  0.8832
    3ALA    HB3   24   8.946  10.691   6.865 -1.3118  0.8281 -0.1581
    3ALA      C   25   8.763  10.808   7.133 -0.5793 -0.3109 -0.3451
    3ALA      O   26   8.781  10.720   7.220  0.4720  0.3571 -0.2258
    4NME      N   27   8.709  10.930   7.170  0.2033 -0.5716  0.8964
    4NME      H   28   8.678  10.986   7.092  0.4285  0.1918  1.3360
    4NME    CH3   29   8.668  10.984   7.303 -0.5402 -0.3804  0.0143
    4NME   HH31   30   8.671  10.896   7.368 -0.5299 -0.6818 -0.3962
    4NME   HH32   31   8.749  11.039   7.352 -1.0819 -0.8530  1.5287
    4NME   HH33   32   8.572  11.033   7.318  0.7599  2.2629  0.2228
  20.99041  20.99041  20.99041
