Protein
   42
    1ACE   HH31    1  12.699  10.040  12.405  0.5118 -0.1537 -0.3810
    1ACE    CH3    2  12.612  10.028  12.339 -0.4426 -0.2038  0.8361
    1ACE   HH32    3  12.542  10.106  12.369  1.0855  1.1288  1.0629
    1ACE   HH33    4  12.578   9.926  12.354  2.1549 -0.9744  2.0962
    1ACE      C    5  12.657  10.051  12.195  0.3145 -0.2908  0.6137
    1ACE      O    6  12.649   9.955  12.115  0.1331 -0.1771 -0.1846
    2ALA      N    7  12.698  10.173  12.170  0.1751 -0.4705  0.0406
    2ALA      H    8  12.706  10.238  12.247  3.1035  0.3394 -0.7897
    2ALA     CA    9  12.764  10.230  12.055 -0.1519 -0.4314 -0.4222
    2ALA     HA   10  12.721  10.327  12.032  0.9795 -0.0297 -0.9141
    2ALA     CB   11  12.906  10.269  12.105  0.7894 -0.2457  0.2313
    2ALA    HB1   12  12.959  10.318  12.024 -0.0884  1.0483  0.4172
    2ALA    HB2   13  12.901  10.348  12.180  2.3482 -2.3678  2.8016
    2ALA    HB3   14  12.956  10.176  12.133 -1.0193 -1.4153 -0.2445
    2ALA      C   15  12.757  10.151  11.923  0.4440  0.2705  0.2295
    2ALA      O   16  12.861  10.131  11.857 -0.0842 -0.2428  0.0822
    3ALA      N   17  12.642  10.095  11.885 -0.4338  0.2259  0.2603
    3ALA      H   18  12.561  10.134  11.930  0.3195 -0.4871  2.3673
    3ALA     CA   19  12.613  10.000  11.772 -0.1231  0.1232 -0.6514
    3ALA     HA   20  12.512   9.961  11.782 -1.1234  2.5140 -0.8012
    3ALA     CB   21  12.626  10.074  11.639  0.0406 -0.0469 -0.1904
    3ALA    HB1   22  12.732  10.078  11.613  0.2048  3.3737  0.6446
    3ALA    HB2   23  12.567  10.028  11.561 -1.7242 -0.4675  1.3197
    3ALA    HB3   24  12.601  10.180  11.643 -1.1621 -0.2023 -2.2391
    3ALA      C   25  12.714   9.874  11.768 -0.2542  0.1752 -0.9132
    3ALA      O   26  12.723   9.800  11.671 -0.2350  0.5370  0.2443
    4ALA      N   27  12.793   9.858  11.876 -0.5278 -0.5094 -0.5800
    4ALA      H   28  12.774   9.917  11.956  0.8019 -2.1295  1.0083
    4ALA     CA   29  12.886   9.748  11.895 -0.1922  0.5674  0.2238
    4ALA     HA   30  12.963   9.754  11.818  1.8377 -3.5432  1.5862
    4ALA     CB   31  12.959   9.778  12.023 -0.1776 -0.6271 -0.0278
    4ALA    HB1   32  13.029   9.860  12.005  0.5469 -1.0090  0.9582
    4ALA    HB2   33  12.898   9.798  12.111  1.5996  3.6303  0.5253
    4ALA    HB3   34  13.023   9.695  12.052 -2.2223 -1.7147  1.6981
    4ALA      C   35  12.822   9.607  11.886 -0.0719  0.2431 -0.3247
    4ALA      O   36  12.888   9.506  11.890  0.4046  0.5973 -0.1326
    5NME      N   37  12.687   9.595  11.885  0.6504  0.0482  0.4927
    5NME      H   38  12.641   9.684  11.890  0.3237  0.0452 -1.5513
    5NME    CH3   39  12.613   9.472  11.890  0.3881  0.5195 -0.0225
    5NME   HH31   40  12.574   9.464  11.991  0.6473  0.7230  0.0999
    5NME   HH32   41  12.531   9.482  11.818  1.0487 -0.0929 -0.8735
    5NME   HH33   42  12.671   9.383  11.870 -0.1257 -0.6456  3.1090
  20.91516  20.91516  20.91516
