Protein
   42
    1ACE   HH31    1   8.977   7.563  10.770 -0.8391  0.5398  0.2946
    1ACE    CH3    2   9.006   7.634  10.693 -0.0709 -0.1829 -0.1013
    1ACE   HH32    3   8.925   7.683  10.640 -1.3236 -0.1927  1.7493
    1ACE   HH33    4   9.039   7.580  10.604  0.2575 -0.3353  0.1099
    1ACE      C    5   9.112   7.729  10.733 -0.7553  0.6492  0.2304
    1ACE      O    6   9.213   7.717  10.667 -0.5085  0.4022  0.2533
    2ALA      N    7   9.096   7.821  10.825  0.2623  0.1879  0.0292
    2ALA      H    8   9.012   7.819  10.881  0.8303  1.8323  1.0032
    2ALA     CA    9   9.201   7.911  10.880 -0.2431  0.3198  0.1211
    2ALA     HA   10   9.177   8.012  10.848 -1.3244 -0.0771 -0.4199
    2ALA     CB   11   9.181   7.908  11.033  0.4088 -0.7702 -0.2936
    2ALA    HB1   12   9.077   7.927  11.059  0.3665 -0.3330 -0.7617
    2ALA    HB2   13   9.210   7.815  11.081  0.4251  0.0232  1.3019
    2ALA    HB3   14   9.242   7.986  11.077 -0.6547 -0.3429  0.4512
    2ALA      C   15   9.350   7.879  10.857 -0.4296 -0.8675  1.2049
    2ALA      O   16   9.420   7.807  10.929  0.1755 -0.1566 -0.4164
    3ALA      N   17   9.399   7.918  10.738 -0.4344 -0.4272 -0.1042
    3ALA      H   18   9.495   7.891  10.723 -0.0110  2.0849 -2.8737
    3ALA     CA   19   9.339   8.003  10.629 -0.3367 -0.1589 -0.7201
    3ALA     HA   20   9.232   8.017  10.638 -0.3232  0.5855 -1.4793
    3ALA     CB   21   9.395   8.141  10.651 -0.5949 -0.1538  0.6375
    3ALA    HB1   22   9.418   8.159  10.756 -2.7668  0.8991  0.9922
    3ALA    HB2   23   9.478   8.155  10.582 -0.8319  0.2932  0.4308
    3ALA    HB3   24   9.317   8.214  10.626  1.4369  1.8322 -0.2409
    3ALA      C   25   9.349   7.953  10.486  0.0094 -0.0880 -0.1945
    3ALA      O   26   9.307   8.016  10.389  0.1017 -0.1344  0.2305
    4ALA      N   27   9.417   7.840  10.469  0.2527  0.5207  0.1380
    4ALA      H   28   9.450   7.807  10.559  0.7733  0.3559 -0.1127
    4ALA     CA   29   9.463   7.780  10.341  0.2244 -0.2972 -0.6116
    4ALA     HA   30   9.445   7.854  10.263 -0.6399 -0.2167 -0.3507
    4ALA     CB   31   9.620   7.760  10.352  0.0976 -0.1425  0.0860
    4ALA    HB1   32   9.656   7.721  10.256  1.0463  1.4846 -0.2499
    4ALA    HB2   33   9.658   7.859  10.372 -0.2211  0.0598 -0.2799
    4ALA    HB3   34   9.653   7.687  10.426  0.5520 -1.8958 -1.7455
    4ALA      C   35   9.378   7.656  10.300  0.0924 -0.2111  0.4352
    4ALA      O   36   9.422   7.560  10.244 -0.0468  0.3132 -0.0902
    5NME      N   37   9.249   7.657  10.335 -0.2642  0.0586 -0.0317
    5NME      H   38   9.222   7.745  10.377 -0.9691  1.0661 -2.4410
    5NME    CH3   39   9.161   7.543  10.337 -0.2832  0.3384  0.1523
    5NME   HH31   40   9.195   7.467  10.407 -1.9123 -0.2847  0.3017
    5NME   HH32   41   9.059   7.580  10.352 -0.8006  0.2287 -2.5850
    5NME   HH33   42   9.164   7.495  10.239 -0.4631 -0.1495  0.3841
  20.91516  20.91516  20.91516
