Protein
   32
    1ACE   HH31    1   7.882   8.430   9.625 -0.7328 -2.9711 -2.2090
    1ACE    CH3    2   7.855   8.365   9.709 -0.5832 -0.2033  0.1626
    1ACE   HH32    3   7.749   8.355   9.687 -0.2195 -0.1679 -1.8734
    1ACE   HH33    4   7.860   8.408   9.809  1.7799  0.2002 -0.0934
    1ACE      C    5   7.933   8.236   9.697 -0.0900  0.0385 -0.6461
    1ACE      O    6   7.957   8.177   9.797 -0.2976  0.5718 -0.2184
    2ALA      N    7   7.961   8.199   9.573 -0.6820 -0.2941 -0.0325
    2ALA      H    8   7.962   8.264   9.496  0.8256 -1.5589 -1.1747
    2ALA     CA    9   8.039   8.072   9.543  0.3039 -0.4233  0.5299
    2ALA     HA   10   8.034   8.060   9.435  0.3519  0.1160  0.4646
    2ALA     CB   11   8.188   8.098   9.557 -0.0314  0.4980 -0.2319
    2ALA    HB1   12   8.242   8.017   9.508 -2.5788 -1.5006  0.1126
    2ALA    HB2   13   8.212   8.193   9.508  0.7978  1.5237  2.0399
    2ALA    HB3   14   8.195   8.110   9.665  0.3567  0.9094 -0.2961
    2ALA      C   15   7.990   7.940   9.606  0.3559 -0.7593  0.3978
    2ALA      O   16   8.064   7.841   9.597 -0.5068  0.0090  0.0431
    3ALA      N   17   7.868   7.933   9.665 -0.3272 -0.2496 -0.1946
    3ALA      H   18   7.817   8.018   9.685 -0.4637 -0.3706  0.0049
    3ALA     CA   19   7.823   7.813   9.733 -0.1262 -0.5417  1.1335
    3ALA     HA   20   7.907   7.745   9.744 -0.2541 -0.6181  1.6819
    3ALA     CB   21   7.773   7.859   9.876  0.0076  0.0237 -0.6741
    3ALA    HB1   22   7.857   7.873   9.945  0.2704 -0.2972 -0.9196
    3ALA    HB2   23   7.733   7.960   9.868  2.6246  1.0823 -1.8556
    3ALA    HB3   24   7.722   7.785   9.937 -0.3834  0.9667  0.1647
    3ALA      C   25   7.704   7.740   9.650 -0.4245 -0.1603  0.7024
    3ALA      O   26   7.595   7.788   9.632 -0.0959  0.0693  0.4631
    4NME      N   27   7.737   7.631   9.583 -0.5039  0.3699 -0.1770
    4NME      H   28   7.829   7.600   9.610 -0.9449  0.5810  1.7114
    4NME    CH3   29   7.651   7.542   9.515  0.2197 -0.0695  0.6268
    4NME   HH31   30   7.640   7.559   9.408 -0.8486 -0.6035  0.6333
    4NME   HH32   31   7.684   7.439   9.532 -0.4373 -0.5124 -0.6536
    4NME   HH33   32   7.555   7.548   9.566  0.4678  1.4901  0.9790
  20.99041  20.99041  20.99041
