Protein
   22
    1ACE   HH31    1   5.167   4.111   5.778 -0.4766  1.1828  0.3088
    1ACE    CH3    2   5.230   4.190   5.817  0.6496  0.5130 -0.0827
    1ACE   HH32    3   5.319   4.143   5.859 -0.9593 -0.4799  2.4800
    1ACE   HH33    4   5.173   4.249   5.889 -0.3519  0.3484 -0.7142
    1ACE      C    5   5.261   4.284   5.700 -0.6181  0.0460  0.3160
    1ACE      O    6   5.381   4.296   5.669 -0.3508 -0.1608  0.2319
    2ALA      N    7   5.156   4.344   5.639 -0.2272 -0.2012  0.6821
    2ALA      H    8   5.064   4.324   5.676 -1.5735  0.7790 -1.8675
    2ALA     CA    9   5.159   4.424   5.520  0.0377 -0.2149 -0.0579
    2ALA     HA   10   5.264   4.423   5.490  0.3475 -2.4907  0.9193
    2ALA     CB   11   5.075   4.361   5.405  0.2650  0.3597 -0.2712
    2ALA    HB1   12   5.062   4.428   5.321  1.4424  0.4180 -0.4245
    2ALA    HB2   13   5.116   4.262   5.385  1.9132  0.6826  1.2141
    2ALA    HB3   14   4.970   4.348   5.431 -0.4432  1.2208 -2.5683
    2ALA      C   15   5.127   4.570   5.549  0.1758 -0.3715  0.3807
    2ALA      O   16   5.062   4.641   5.470 -0.2453  0.0497  0.1629
    3NME      N   17   5.154   4.622   5.668  0.1318 -0.1750  0.0705
    3NME      H   18   5.225   4.573   5.720 -2.8386 -2.9501  1.8929
    3NME    CH3   19   5.131   4.760   5.706 -0.6849 -0.0639  0.7078
    3NME   HH31   20   5.206   4.791   5.779  0.0497  2.0576 -0.8192
    3NME   HH32   21   5.129   4.822   5.616 -0.8120  0.3667  0.9944
    3NME   HH33   22   5.032   4.760   5.752 -0.9860  1.3583  0.1185
  10.72160  10.72160  10.72160
