Protein
   32
    1ACE   HH31    1   7.809   8.281   9.187  0.5630 -0.2903  0.6434
    1ACE    CH3    2   7.815   8.174   9.169  0.5583 -0.2649  0.4790
    1ACE   HH32    3   7.815   8.146   9.064  0.3536  1.6321 -0.0673
    1ACE   HH33    4   7.738   8.116   9.218 -0.7232  1.0635  0.1065
    1ACE      C    5   7.946   8.143   9.232 -0.1209 -0.2094  0.4298
    1ACE      O    6   8.002   8.223   9.310 -0.2154 -0.1233  0.5147
    2ALA      N    7   8.002   8.029   9.192 -0.7838  0.1437 -0.6851
    2ALA      H    8   7.966   7.976   9.113  2.3095 -3.6368  0.1617
    2ALA     CA    9   8.135   7.998   9.232 -0.2997 -0.2885 -0.4837
    2ALA     HA   10   8.165   8.060   9.316 -3.3496  1.3180 -0.4715
    2ALA     CB   11   8.151   7.847   9.265  0.2341  0.3431  0.3417
    2ALA    HB1   12   8.107   7.787   9.185 -0.1908  0.3686  0.5514
    2ALA    HB2   13   8.257   7.827   9.283  0.2735 -0.5241 -0.7794
    2ALA    HB3   14   8.093   7.818   9.353 -1.9471  1.0315 -0.7858
    2ALA      C   15   8.228   8.036   9.113 -0.1974  0.1356 -0.6355
    2ALA      O   16   8.189   8.039   9.000 -0.5850 -0.0859  0.0486
    3ALA      N   17   8.357   8.044   9.139 -0.4681 -0.6831  0.5168
    3ALA      H   18   8.380   8.049   9.237  2.6966 -0.3028 -0.1511
    3ALA     CA   19   8.471   8.079   9.041  0.1528  0.2470  0.2124
    3ALA     HA   20   8.426   8.137   8.960 -0.6960 -0.9891 -0.2526
    3ALA     CB   21   8.575   8.169   9.111 -0.7260  0.0482 -0.6906
    3ALA    HB1   22   8.657   8.199   9.046 -0.8267 -0.1376 -0.9093
    3ALA    HB2   23   8.515   8.256   9.137 -2.1789 -0.8409 -0.9766
    3ALA    HB3   24   8.600   8.114   9.202 -0.1482  2.2164  0.5152
    3ALA      C   25   8.532   7.949   8.982 -0.8026  0.2741 -0.0370
    3ALA      O   26   8.621   7.955   8.896 -0.2679  0.0466 -0.1205
    4NME      N   27   8.491   7.839   9.039  0.8126  0.3413 -0.2134
    4NME      H   28   8.409   7.843   9.097  0.8732  1.8950 -0.1994
    4NME    CH3   29   8.551   7.710   9.020 -0.0723  0.1049 -0.2268
    4NME   HH31   30   8.546   7.657   9.115 -0.6585  0.5818  0.0216
    4NME   HH32   31   8.505   7.652   8.941  1.2600  0.9450 -1.7007
    4NME   HH33   32   8.656   7.727   8.996  0.1014 -1.7953 -0.9117
  20.99041  20.99041  20.99041
