Protein
   42
    1ACE   HH31    1  10.396  13.669   5.605  0.8708 -2.2244 -0.9228
    1ACE    CH3    2  10.370  13.689   5.501 -0.4297 -0.3139 -0.2880
    1ACE   HH32    3  10.453  13.646   5.445 -0.3315 -0.0991 -0.3091
    1ACE   HH33    4  10.366  13.796   5.478  1.6313 -0.1481 -0.0832
    1ACE      C    5  10.243  13.609   5.470  0.0633 -0.0807 -0.2524
    1ACE      O    6  10.174  13.649   5.375 -0.1530 -0.1753  0.0016
    2ALA      N    7  10.207  13.500   5.544  0.2325 -0.7959  0.5523
    2ALA      H    8  10.279  13.455   5.599 -0.1733  0.1234  1.8599
    2ALA     CA    9  10.091  13.419   5.507 -0.2512  0.2651 -0.4892
    2ALA     HA   10  10.090  13.396   5.401 -1.2515 -1.4514 -0.1432
    2ALA     CB   11  10.128  13.282   5.570 -0.1043 -0.3650  0.5257
    2ALA    HB1   12  10.214  13.232   5.525 -0.9913 -1.1829 -0.3320
    2ALA    HB2   13  10.159  13.299   5.674  2.3944  2.2629 -0.5060
    2ALA    HB3   14  10.047  13.209   5.569  0.2011 -0.7160  1.0228
    2ALA      C   15   9.956  13.479   5.545  0.7748 -0.0529 -0.0168
    2ALA      O   16   9.872  13.418   5.609  0.3186 -0.1906  0.2594
    3ALA      N   17   9.931  13.601   5.498  0.1424 -0.4447  0.3336
    3ALA      H   18   9.985  13.639   5.422 -2.8256 -0.9135 -2.1981
    3ALA     CA   19   9.799  13.676   5.533  0.0682  0.2518 -0.4027
    3ALA     HA   20   9.782  13.673   5.640 -1.0258 -2.1285 -0.5816
    3ALA     CB   21   9.835  13.822   5.505  0.3617 -0.3241  0.6309
    3ALA    HB1   22   9.823  13.852   5.401  2.5265 -2.2197 -0.2567
    3ALA    HB2   23   9.770  13.882   5.568  2.9498  0.5829  2.5866
    3ALA    HB3   24   9.934  13.844   5.544  0.3671  1.4021 -0.2383
    3ALA      C   25   9.676  13.632   5.463  1.2713  0.3746  0.0184
    3ALA      O   26   9.651  13.664   5.349  0.1829 -0.3415 -0.1948
    4ALA      N   27   9.587  13.568   5.538  0.5228 -0.3869  0.0526
    4ALA      H   28   9.615  13.557   5.634  0.8018  0.2979  0.0605
    4ALA     CA   29   9.453  13.525   5.485 -0.0696  0.0997 -0.2807
    4ALA     HA   30   9.466  13.486   5.384 -1.2028  1.5262 -1.0222
    4ALA     CB   31   9.413  13.402   5.572  0.2125  0.0000 -0.3430
    4ALA    HB1   32   9.496  13.331   5.561  1.5548  1.0008  2.4673
    4ALA    HB2   33   9.390  13.432   5.674 -0.8145 -0.8004 -0.3257
    4ALA    HB3   34   9.323  13.358   5.530 -0.2447  0.7868 -0.1881
    4ALA      C   35   9.351  13.639   5.492 -0.2480  0.2658  0.2680
    4ALA      O   36   9.283  13.661   5.591  0.4121  0.3970 -0.6844
    5NME      N   37   9.341  13.716   5.379 -0.1153  0.8052 -0.0093
    5NME      H   38   9.413  13.702   5.309 -0.5716 -2.5364 -0.0066
    5NME    CH3   39   9.238  13.817   5.366 -0.6028 -0.3450  0.0578
    5NME   HH31   40   9.296  13.908   5.385  3.3107 -2.4625 -0.7085
    5NME   HH32   41   9.192  13.821   5.267  0.6523 -0.4593 -0.5523
    5NME   HH33   42   9.163  13.812   5.445 -0.0630 -1.7074  0.5006
  20.91516  20.91516  20.91516
