Title
  129
    1AIB    CAY    1  28.559  23.826   9.265  0.2889 -0.2711 -0.6072
    1AIB    HY1    2  28.600  23.913   9.322  0.8725 -0.8139 -0.1833
    1AIB    HY2    3  28.595  23.734   9.316 -4.1620 -0.6233  2.5186
    1AIB    HY3    4  28.449  23.823   9.280  0.1306 -3.8409 -1.6366
    1AIB     CY    5  28.591  23.843   9.124 -0.6524 -0.3376 -0.0779
    1AIB     OY    6  28.511  23.823   9.038  0.1693 -0.1780 -0.3562
    1AIB      N    7  28.719  23.888   9.102 -0.1683 -0.6610 -0.4932
    1AIB     HN    8  28.773  23.906   9.184  1.5703 -2.4559 -1.1634
    1AIB     CA    9  28.794  23.887   8.979  0.0486  0.1602 -0.4507
    1AIB    CB1   10  28.841  23.743   8.952  0.1482  0.2288  0.5613
    1AIB   HB11   11  28.914  23.750   8.869 -1.4467  0.6296 -0.8570
    1AIB   HB12   12  28.761  23.672   8.922  0.9787  0.0626 -1.3964
    1AIB   HB13   13  28.903  23.703   9.036 -0.5764  0.4018  1.1896
    1AIB    CB2   14  28.914  23.990   9.003  0.6308 -0.5624 -0.6113
    1AIB   HB21   15  28.969  23.996   8.906  1.4786 -0.5934 -0.1369
    1AIB   HB22   16  28.976  23.953   9.087  0.2702  0.7086  0.2367
    1AIB   HB23   17  28.865  24.085   9.032  0.5958 -0.2665 -1.5780
    1AIB      C   18  28.709  23.937   8.859 -0.9466 -0.0437  0.5317
    1AIB      O   19  28.708  23.884   8.748 -0.4773  0.2655 -0.2281
    2AIB      N   20  28.645  24.053   8.880 -0.1376  0.0619  0.2097
    2AIB     HN   21  28.667  24.096   8.967  1.9120  0.3414 -0.3820
    2AIB     CA   22  28.574  24.133   8.783 -0.0659 -0.1900 -0.1741
    2AIB    CB1   23  28.676  24.216   8.701 -1.2963 -0.2054  0.4284
    2AIB   HB11   24  28.722  24.300   8.757 -0.6229  1.0218 -1.8541
    2AIB   HB12   25  28.629  24.280   8.624 -1.1712  0.6340  1.0394
    2AIB   HB13   26  28.757  24.152   8.659 -0.6875  0.6423  0.2829
    2AIB    CB2   27  28.492  24.236   8.870  0.0445 -0.4117  0.2443
    2AIB   HB21   28  28.420  24.289   8.805  1.3448  1.5658  0.3191
    2AIB   HB22   29  28.562  24.302   8.925  1.2416 -0.2540 -1.4150
    2AIB   HB23   30  28.428  24.179   8.941 -1.2541 -0.9112 -1.2622
    2AIB      C   31  28.475  24.054   8.693 -0.1559 -0.6893  0.0214
    2AIB      O   32  28.463  24.073   8.572  0.6975 -0.3336 -0.1211
    3AIB      N   33  28.401  23.960   8.756 -0.0212 -0.6387 -0.3542
    3AIB     HN   34  28.419  23.933   8.851  1.0651 -2.4443 -1.0456
    3AIB     CA   35  28.301  23.876   8.703 -0.6021 -0.4758  0.1153
    3AIB    CB1   36  28.179  23.961   8.675  0.0588 -0.0189  0.3355
    3AIB   HB11   37  28.082  23.907   8.676 -0.5317  0.9545 -0.9822
    3AIB   HB12   38  28.186  24.003   8.572  0.7913 -2.5369 -0.7331
    3AIB   HB13   39  28.173  24.037   8.755  0.8088  0.9688 -0.5074
    3AIB    CB2   40  28.261  23.781   8.815 -0.0803  0.3462 -0.3833
    3AIB   HB21   41  28.344  23.731   8.869  0.0475  0.8499 -0.1148
    3AIB   HB22   42  28.191  23.709   8.767 -1.2949  0.4148  1.1526
    3AIB   HB23   43  28.205  23.826   8.900  0.1234  0.8863 -0.5330
    3AIB      C   44  28.348  23.789   8.584 -0.1105 -0.2313  0.2796
    3AIB      O   45  28.281  23.786   8.480 -0.5678 -0.1813  0.8220
    4AIB      N   46  28.463  23.723   8.596 -0.2577 -0.5291 -0.1783
    4AIB     HN   47  28.523  23.739   8.673 -2.0180 -0.2790  1.2102
    4AIB     CA   48  28.529  23.639   8.496  0.4373  0.1561  0.0941
    4AIB    CB1   49  28.432  23.528   8.452 -0.7046 -0.1154  0.0789
    4AIB   HB11   50  28.391  23.477   8.541  1.0324 -3.3329 -0.8251
    4AIB   HB12   51  28.488  23.448   8.398 -0.2741  0.5497 -0.4773
    4AIB   HB13   52  28.352  23.567   8.386 -1.9165 -1.0825  0.9448
    4AIB    CB2   53  28.643  23.572   8.571 -0.3624  0.3713  0.5672
    4AIB   HB21   54  28.707  23.645   8.626  1.1252 -0.8079  0.4798
    4AIB   HB22   55  28.710  23.511   8.506 -1.2055 -1.7552  1.5750
    4AIB   HB23   56  28.606  23.502   8.648  1.5613 -0.1255  1.1087
    4AIB      C   57  28.578  23.722   8.373  0.1221 -0.1110 -0.1777
    4AIB      O   58  28.559  23.688   8.251  0.1658 -0.0513 -0.5013
    5AIB      N   59  28.643  23.845   8.403 -0.1694 -0.6424 -0.3018
    5AIB     HN   60  28.667  23.862   8.498  0.2024 -0.9363 -0.3379
    5AIB     CA   61  28.709  23.940   8.314  0.1173 -0.9237 -0.1296
    5AIB    CB1   62  28.804  23.863   8.230 -0.5381 -0.2958  0.8901
    5AIB   HB11   63  28.756  23.783   8.170 -2.2305  0.4018  1.2477
    5AIB   HB12   64  28.887  23.811   8.284  2.0946  0.3241 -2.1565
    5AIB   HB13   65  28.854  23.937   8.164 -2.9196  1.1151  0.5426
    5AIB    CB2   66  28.778  24.054   8.386  0.3315 -0.1099 -0.1685
    5AIB   HB21   67  28.807  24.137   8.319 -0.8326  0.3353 -0.1470
    5AIB   HB22   68  28.873  24.019   8.431 -0.2364 -2.9764 -0.9462
    5AIB   HB23   69  28.712  24.087   8.470  0.0964 -0.5883 -0.1533
    5AIB      C   70  28.597  24.011   8.220 -0.1339  0.1173  1.0053
    5AIB      O   71  28.616  24.017   8.098  0.2724  0.6876 -0.4803
    6AIB      N   72  28.484  24.054   8.280 -0.4530 -0.2527 -0.6835
    6AIB     HN   73  28.484  24.053   8.379 -1.4396  0.0536 -0.6586
    6AIB     CA   74  28.369  24.121   8.212 -0.6337 -0.3884  0.1332
    6AIB    CB1   75  28.401  24.261   8.161 -0.1758  0.5663 -0.4403
    6AIB   HB11   76  28.501  24.260   8.111 -0.0065 -1.9392 -0.1537
    6AIB   HB12   77  28.414  24.331   8.246 -2.3799  0.3865  0.0741
    6AIB   HB13   78  28.318  24.294   8.095  0.3727  1.1401 -0.8665
    6AIB    CB2   79  28.260  24.147   8.318 -0.8110  0.3218 -0.4012
    6AIB   HB21   80  28.163  24.177   8.271 -1.9355 -2.1058  0.2477
    6AIB   HB22   81  28.288  24.237   8.377 -1.8333  0.7891 -0.5960
    6AIB   HB23   82  28.254  24.060   8.386  0.3096  0.2610 -0.3564
    6AIB      C   83  28.309  24.030   8.101  0.1890  0.3664  0.0714
    6AIB      O   84  28.276  24.070   7.995 -0.0452 -0.2943  0.2126
    7AIB      N   85  28.291  23.893   8.139 -0.3244 -0.4472  0.2316
    7AIB     HN   86  28.323  23.870   8.230 -1.1294  2.8470  1.5019
    7AIB     CA   87  28.226  23.786   8.067 -0.5225 -0.0841 -0.2278
    7AIB    CB1   88  28.086  23.837   8.026 -0.6290  0.0765  0.4334
    7AIB   HB11   89  28.033  23.851   8.123 -1.6033  0.3833 -0.1284
    7AIB   HB12   90  28.036  23.766   7.957  1.6704  0.0759 -1.3099
    7AIB   HB13   91  28.098  23.935   7.973 -2.4226  0.4839  0.7204
    7AIB    CB2   92  28.213  23.667   8.165 -0.4482 -0.7870  0.4126
    7AIB   HB21   93  28.161  23.695   8.259 -0.8289 -1.8283  0.5280
    7AIB   HB22   94  28.313  23.620   8.179  0.9077  1.3588 -1.4167
    7AIB   HB23   95  28.152  23.587   8.116 -0.7066  0.2130 -0.9815
    7AIB      C   96  28.303  23.745   7.941  1.0582  0.0050  0.1712
    7AIB      O   97  28.240  23.713   7.837  0.3093 -0.2124 -0.6675
    8AIB      N   98  28.441  23.751   7.941 -0.5047  0.4777 -0.5822
    8AIB     HN   99  28.480  23.774   8.030  1.3883 -0.8413 -1.0319
    8AIB     CA  100  28.533  23.726   7.832  0.3696  0.9044 -0.5163
    8AIB    CB1  101  28.504  23.588   7.773 -0.4895  0.2869 -0.0168
    8AIB   HB11  102  28.402  23.593   7.727 -1.0399  3.3051  1.3293
    8AIB   HB12  103  28.508  23.520   7.861  1.1992  1.1112  0.5736
    8AIB   HB13  104  28.573  23.555   7.693 -0.9100 -1.4884  0.3091
    8AIB    CB2  105  28.678  23.739   7.896 -0.3118  0.3632  0.3148
    8AIB   HB21  106  28.680  23.664   7.979  1.0182 -1.7692 -1.5311
    8AIB   HB22  107  28.709  23.838   7.934  0.3176  0.4856 -0.5121
    8AIB   HB23  108  28.759  23.708   7.827  0.4322  1.2119  0.7861
    8AIB      C  109  28.527  23.840   7.720  0.1973  0.1594 -0.1622
    8AIB      O  110  28.544  23.812   7.602 -0.6189 -0.1409 -0.0617
    9AIB      N  111  28.515  23.968   7.760  0.3863 -0.8607 -0.2680
    9AIB     HN  112  28.499  23.984   7.857 -0.0561  2.9336 -0.8016
    9AIB     CA  113  28.504  24.086   7.678  0.2147 -0.1815  0.4414
    9AIB    CB1  114  28.632  24.109   7.594 -0.2982  0.2482  0.1459
    9AIB   HB11  115  28.720  24.115   7.663 -0.5781 -3.2567  1.0134
    9AIB   HB12  116  28.630  24.208   7.544 -1.4527  0.5661  0.7912
    9AIB   HB13  117  28.644  24.019   7.530  1.3151  0.8980 -0.5155
    9AIB    CB2  118  28.495  24.205   7.774  1.2001 -0.1564 -0.3046
    9AIB   HB21  119  28.406  24.208   7.840  1.2234  1.5826 -0.3234
    9AIB   HB22  120  28.497  24.305   7.726 -0.6144  0.7687  1.4178
    9AIB   HB23  121  28.580  24.209   7.845  0.9962 -0.3347 -0.0504
    9AIB      C  122  28.375  24.092   7.593 -0.2040  0.4771  0.5531
    9AIB      O  123  28.369  24.108   7.474  0.3860  0.1795 -0.1184
    9AIB     NT  124  28.263  24.063   7.666  0.1983  0.2544 -0.0898
    9AIB    HNT  125  28.275  24.045   7.763  1.1135 -0.5820 -0.3386
    9AIB    CAT  126  28.122  24.071   7.620 -0.1689  0.0984  0.1037
    9AIB    HT1  127  28.100  24.068   7.511 -5.5076  2.4734  0.8539
    9AIB    HT2  128  28.061  24.153   7.661  0.8650  0.4771  0.9198
    9AIB    HT3  129  28.075  23.977   7.656  2.5653 -1.0285  1.0554
  42.09246  42.09246  42.09246
