Protein
   42
    1ACE   HH31    1   3.648  15.030   5.555  0.1109 -1.3139 -0.5886
    1ACE    CH3    2   3.746  15.071   5.531  0.0737 -0.6461  0.3367
    1ACE   HH32    3   3.737  15.179   5.518  0.6474 -0.5881  0.3538
    1ACE   HH33    4   3.782  15.017   5.443  1.0157  0.9566 -0.3125
    1ACE      C    5   3.834  15.022   5.643  0.6365 -0.2261 -0.2952
    1ACE      O    6   3.920  14.941   5.621 -0.0979  0.0594  0.6618
    2ALA      N    7   3.800  15.064   5.767 -0.7860  0.1167 -0.8048
    2ALA      H    8   3.744  15.147   5.780 -0.2333  0.4903 -0.7785
    2ALA     CA    9   3.866  15.036   5.893  0.0304  0.5297  0.0586
    2ALA     HA   10   3.929  14.947   5.882  3.4487  2.4116  2.4592
    2ALA     CB   11   3.963  15.153   5.917 -0.0233 -0.7919  0.2690
    2ALA    HB1   12   4.019  15.183   5.828  1.4618  1.1527  1.7541
    2ALA    HB2   13   3.911  15.242   5.953  1.6834  0.5884 -0.5001
    2ALA    HB3   14   4.037  15.117   5.988  0.4047  1.9214  1.2886
    2ALA      C   15   3.774  15.010   6.012 -0.4873 -0.4972 -0.2303
    2ALA      O   16   3.665  15.067   6.017 -0.0641 -0.2748  1.1133
    3ALA      N   17   3.802  14.926   6.116  0.4228 -0.2950  0.3362
    3ALA      H   18   3.729  14.935   6.185  0.1384  1.4494 -0.1274
    3ALA     CA   19   3.907  14.833   6.147  0.0228  0.5462  0.3996
    3ALA     HA   20   3.897  14.736   6.099  1.0396  0.2173  0.8085
    3ALA     CB   21   4.055  14.881   6.143 -0.9210 -0.2467 -0.5939
    3ALA    HB1   22   4.116  14.795   6.167 -0.2605 -0.2503 -2.1531
    3ALA    HB2   23   4.088  14.906   6.042 -0.7780 -1.9407 -0.9901
    3ALA    HB3   24   4.080  14.955   6.219  0.8345  0.2620 -1.6147
    3ALA      C   25   3.876  14.800   6.294 -0.5760 -0.1687  0.1597
    3ALA      O   26   3.851  14.684   6.328 -0.3864 -0.2193  0.3324
    4ALA      N   27   3.877  14.899   6.385 -0.6446  0.9903 -0.1446
    4ALA      H   28   3.892  14.991   6.346 -0.6457  0.0454 -2.6014
    4ALA     CA   29   3.872  14.874   6.533 -0.2943 -0.1939  0.5640
    4ALA     HA   30   3.804  14.789   6.546 -1.1522  0.7174  2.2376
    4ALA     CB   31   4.014  14.856   6.582 -0.6862 -0.3162  0.2095
    4ALA    HB1   32   4.078  14.931   6.535 -1.4973  0.4864  0.3526
    4ALA    HB2   33   4.021  14.871   6.690  1.6207 -0.1248  0.0868
    4ALA    HB3   34   4.043  14.753   6.560 -0.5794 -0.4070  0.7489
    4ALA      C   35   3.808  14.993   6.605  0.2750 -1.1841  0.8636
    4ALA      O   36   3.821  15.106   6.558 -0.3388 -0.0253 -0.5439
    5NME      N   37   3.753  14.966   6.722  0.3369  0.5779  0.3253
    5NME      H   38   3.754  14.867   6.741  3.5210  0.3868 -0.2624
    5NME    CH3   39   3.696  15.063   6.809 -0.3224 -0.3868  0.8571
    5NME   HH31   40   3.781  15.112   6.857  0.1726  1.0929 -1.4086
    5NME   HH32   41   3.640  15.135   6.751 -0.2444 -0.8657  0.1798
    5NME   HH33   42   3.622  15.018   6.876 -2.9866  1.4078 -0.7567
  20.91516  20.91516  20.91516
