Protein
   32
    1ACE   HH31    1   4.842  11.951  16.647  0.1197  0.2250  1.8656
    1ACE    CH3    2   4.743  11.994  16.633 -0.2697 -1.1330  0.0680
    1ACE   HH32    3   4.688  11.924  16.571  0.3475 -0.5498 -1.1799
    1ACE   HH33    4   4.737  12.089  16.579 -1.3628 -0.3483  1.4794
    1ACE      C    5   4.667  12.012  16.767  0.1425  0.4957  0.2293
    1ACE      O    6   4.599  12.115  16.787 -0.7896 -0.2750 -0.5513
    2ALA      N    7   4.665  11.909  16.850 -0.3024  0.4493 -0.4044
    2ALA      H    8   4.727  11.833  16.823  0.0965  0.1542  1.2658
    2ALA     CA    9   4.573  11.888  16.960 -0.0002  0.1974  0.6548
    2ALA     HA   10   4.597  11.968  17.029  1.3393 -1.9247  2.7637
    2ALA     CB   11   4.427  11.899  16.922 -0.0070 -0.3240  0.2484
    2ALA    HB1   12   4.352  11.872  16.997  0.6954  1.6375  1.7075
    2ALA    HB2   13   4.401  11.998  16.886  0.0323 -0.2307  0.4782
    2ALA    HB3   14   4.402  11.825  16.845  1.4816 -2.1224  1.3979
    2ALA      C   15   4.602  11.757  17.030  0.3151 -0.0178 -0.0122
    2ALA      O   16   4.632  11.650  16.970 -0.4950 -0.4032  0.1345
    3ALA      N   17   4.584  11.756  17.156  0.1174 -0.2194  0.1285
    3ALA      H   18   4.570  11.845  17.202  2.7109 -0.1782  1.0793
    3ALA     CA   19   4.579  11.633  17.239 -0.5373 -0.0248 -0.2938
    3ALA     HA   20   4.595  11.543  17.180  1.1658  0.1308 -0.1147
    3ALA     CB   21   4.686  11.653  17.346  0.4048  0.2702 -0.3416
    3ALA    HB1   22   4.682  11.573  17.419 -1.0542  1.4976  1.0039
    3ALA    HB2   23   4.780  11.653  17.291  2.2988 -2.2242  2.5940
    3ALA    HB3   24   4.683  11.748  17.400 -0.7154 -0.1358  0.3438
    3ALA      C   25   4.447  11.599  17.305 -0.3109  0.0500 -0.3142
    3ALA      O   26   4.357  11.679  17.308  0.1254 -0.6486 -0.3569
    4NME      N   27   4.431  11.470  17.338 -0.1387  0.0618 -0.2097
    4NME      H   28   4.507  11.404  17.335  0.0806  0.3202 -0.2664
    4NME    CH3   29   4.297  11.415  17.354  0.1955 -0.2133  0.2900
    4NME   HH31   30   4.225  11.477  17.300 -0.8320 -2.0186 -0.4927
    4NME   HH32   31   4.286  11.311  17.323 -2.3146 -0.3312  1.3789
    4NME   HH33   32   4.273  11.424  17.460  0.6199  1.6026  0.2632
  20.99041  20.99041  20.99041
