Protein
   42
    1ACE   HH31    1   9.790   7.970   0.989 -0.0366  1.4574 -0.6300
    1ACE    CH3    2   9.708   7.975   1.061  0.1732 -0.0394 -0.2624
    1ACE   HH32    3   9.678   8.076   1.087  1.5253  0.2998  0.0240
    1ACE   HH33    4   9.736   7.916   1.149 -1.3110 -0.3504  0.0397
    1ACE      C    5   9.594   7.907   0.995 -0.0415  0.0176 -0.1263
    1ACE      O    6   9.578   7.915   0.872  0.2511 -0.5383 -0.1497
    2ALA      N    7   9.515   7.845   1.084  0.0814 -0.1936  0.5204
    2ALA      H    8   9.534   7.852   1.183 -1.8400  0.7283  0.8800
    2ALA     CA    9   9.390   7.789   1.042 -0.1954 -0.4773 -0.0843
    2ALA     HA   10   9.394   7.791   0.933  4.5418  0.0559 -0.1351
    2ALA     CB   11   9.372   7.641   1.077 -0.1653 -0.0350 -0.0866
    2ALA    HB1   12   9.387   7.636   1.185  2.5369 -0.4339 -0.4294
    2ALA    HB2   13   9.273   7.602   1.051  0.4423 -1.1030 -0.8506
    2ALA    HB3   14   9.453   7.575   1.047 -0.1577 -1.0382  1.9412
    2ALA      C   15   9.272   7.874   1.084  0.2343 -0.2539 -0.4847
    2ALA      O   16   9.277   7.942   1.185 -0.7674 -0.2530 -0.2403
    3ALA      N   17   9.158   7.871   1.017 -0.5003 -0.1026 -0.1634
    3ALA      H   18   9.090   7.907   1.082  0.4444 -0.6023  1.1491
    3ALA     CA   19   9.110   7.801   0.898 -0.1586 -0.8372 -0.1904
    3ALA     HA   20   9.180   7.733   0.849  0.7746  0.7919 -1.1914
    3ALA     CB   21   8.999   7.708   0.938 -0.0453  0.6813 -0.4412
    3ALA    HB1   22   9.025   7.651   1.027  2.5719  0.0697 -1.4924
    3ALA    HB2   23   8.911   7.767   0.964 -0.9850 -0.0752 -1.7453
    3ALA    HB3   24   8.965   7.651   0.851  0.9142 -0.4301 -0.1172
    3ALA      C   25   9.076   7.907   0.792  0.5286  0.2073 -0.1573
    3ALA      O   26   8.970   7.965   0.801  0.2297 -0.7309  0.7771
    4ALA      N   27   9.162   7.930   0.692 -0.1859  0.1956  0.2819
    4ALA      H   28   9.247   7.877   0.683 -0.9759 -0.8302 -2.3774
    4ALA     CA   29   9.131   8.019   0.579  0.0570  1.0131  0.0792
    4ALA     HA   30   9.034   8.068   0.591 -0.8823 -0.2100 -2.0449
    4ALA     CB   31   9.244   8.127   0.572 -0.0483 -0.1464 -0.1408
    4ALA    HB1   32   9.336   8.076   0.541 -0.7669 -2.2418  0.9750
    4ALA    HB2   33   9.221   8.203   0.498  1.4083 -0.9087 -1.4456
    4ALA    HB3   34   9.255   8.179   0.667 -0.4366  0.1081 -0.2334
    4ALA      C   35   9.127   7.948   0.448  0.0464  1.1666 -0.1864
    4ALA      O   36   9.157   7.829   0.442 -0.1030 -0.0062  0.6791
    5NME      N   37   9.069   8.011   0.347 -0.0294  0.1315 -0.1975
    5NME      H   38   9.026   8.101   0.365  0.1201  0.4559 -1.3649
    5NME    CH3   39   9.077   7.952   0.217 -0.5501 -0.0404 -0.3402
    5NME   HH31   40   9.099   8.032   0.145 -2.3038  0.9029  0.1246
    5NME   HH32   41   9.152   7.873   0.213 -0.6128 -0.2094  1.3288
    5NME   HH33   42   8.985   7.900   0.193 -1.4384 -0.8093  3.9485
  20.91516  20.91516  20.91516
