Protein
   32
    1ACE   HH31    1   7.387   8.233  10.598 -0.2297  0.2803  0.7051
    1ACE    CH3    2   7.451   8.243  10.686 -0.1619 -0.3917  0.7412
    1ACE   HH32    3   7.553   8.236  10.650 -0.6788  0.6805 -1.0687
    1ACE   HH33    4   7.428   8.160  10.752  2.6630 -0.5485  1.6262
    1ACE      C    5   7.430   8.371  10.764  0.2930  0.9880  1.2219
    1ACE      O    6   7.393   8.367  10.881  0.0296  0.2115 -0.6194
    2ALA      N    7   7.453   8.479  10.686 -0.2486  0.1992 -0.1299
    2ALA      H    8   7.473   8.465  10.588  0.2697  0.1058 -0.0133
    2ALA     CA    9   7.442   8.620  10.727  0.0097  0.6685 -0.8602
    2ALA     HA   10   7.354   8.630  10.791 -0.5572 -2.0089 -1.0868
    2ALA     CB   11   7.558   8.663  10.811  0.1415  0.0595 -0.8203
    2ALA    HB1   12   7.521   8.746  10.870  1.2570 -1.3240  2.0298
    2ALA    HB2   13   7.589   8.584  10.880  1.9598  0.1062 -1.5447
    2ALA    HB3   14   7.647   8.703  10.763  0.4149  2.0673  1.2014
    2ALA      C   15   7.425   8.717  10.611 -0.0438  0.0014  0.3824
    2ALA      O   16   7.464   8.686  10.501  0.2644  0.3417 -0.3048
    3ALA      N   17   7.346   8.818  10.630 -0.2770 -0.0313  0.2573
    3ALA      H   18   7.303   8.817  10.722  0.4808  0.7539  0.6189
    3ALA     CA   19   7.298   8.915  10.531 -0.1174  0.9256  0.0775
    3ALA     HA   20   7.329   8.888  10.430  0.2462  0.0887  0.4086
    3ALA     CB   21   7.145   8.923  10.538 -0.1604 -0.1559  0.4117
    3ALA    HB1   22   7.121   8.948  10.641 -1.5855  1.5217 -0.2693
    3ALA    HB2   23   7.104   9.008  10.482 -1.3530 -0.9750  0.0162
    3ALA    HB3   24   7.105   8.827  10.508  0.4016 -0.9688  2.1191
    3ALA      C   25   7.362   9.053  10.561 -0.4650  0.0564  0.2039
    3ALA      O   26   7.361   9.142  10.476  0.2386  0.6944  0.0343
    4NME      N   27   7.394   9.081  10.687 -0.2456 -0.3998 -0.0236
    4NME      H   28   7.382   9.004  10.752  1.0132  0.0826  0.8242
    4NME    CH3   29   7.456   9.206  10.731  0.0673  0.0352  0.6690
    4NME   HH31   30   7.395   9.290  10.699  1.9136  1.7515  1.3963
    4NME   HH32   31   7.484   9.214  10.837 -0.1695  0.8970  0.6742
    4NME   HH33   32   7.551   9.222  10.679  2.2498 -3.5540  3.1100
  20.99041  20.99041  20.99041
