Protein
   32
    1ACE   HH31    1  14.686  12.130   9.822 -0.1635  0.6868  0.7499
    1ACE    CH3    2  14.673  12.190   9.732 -0.2472  0.3353  0.5246
    1ACE   HH32    3  14.642  12.128   9.648 -0.2374 -2.2985  2.3874
    1ACE   HH33    4  14.764  12.242   9.700  0.6844 -1.4414  0.2189
    1ACE      C    5  14.578  12.298   9.760 -0.0644 -0.1908  0.0779
    1ACE      O    6  14.612  12.414   9.755  0.1093 -0.5750  0.1144
    2ALA      N    7  14.453  12.272   9.793  0.4093 -0.1010 -0.6983
    2ALA      H    8  14.419  12.177   9.787 -0.5761  0.3400 -3.3364
    2ALA     CA    9  14.347  12.370   9.805  0.4060  0.1264  0.3870
    2ALA     HA   10  14.346  12.428   9.713 -2.9592 -1.9479 -1.0580
    2ALA     CB   11  14.211  12.300   9.814 -0.4086  0.5210  0.2399
    2ALA    HB1   12  14.205  12.241   9.904 -0.2499  0.5080  0.2427
    2ALA    HB2   13  14.133  12.376   9.803  0.2830  1.3472  0.8838
    2ALA    HB3   14  14.213  12.233   9.728 -0.8762  0.6234  0.1437
    2ALA      C   15  14.365  12.460   9.924  0.4582 -0.4363 -0.3378
    2ALA      O   16  14.290  12.557   9.939  0.4123  0.4952 -0.3689
    3ALA      N   17  14.467  12.444  10.007  0.0159  0.0150 -0.2383
    3ALA      H   18  14.540  12.376   9.988  2.1201  1.8197  0.8932
    3ALA     CA   19  14.496  12.515  10.133  0.2906  0.2004 -0.0872
    3ALA     HA   20  14.502  12.623  10.116  2.0560  0.1515  0.0294
    3ALA     CB   21  14.376  12.481  10.231 -0.0281  0.6700 -0.5607
    3ALA    HB1   22  14.285  12.522  10.188 -0.6974  0.1475  0.3062
    3ALA    HB2   23  14.368  12.373  10.248 -0.0938  0.7734  0.1035
    3ALA    HB3   24  14.386  12.529  10.328 -2.4109  0.3576 -0.0838
    3ALA      C   25  14.628  12.470  10.198 -0.0875 -0.0711  0.0383
    3ALA      O   26  14.708  12.400  10.138 -0.7707 -0.5058 -0.2572
    4NME      N   27  14.648  12.522  10.320 -0.1483  0.9470 -0.0023
    4NME      H   28  14.568  12.565  10.364 -0.7791 -1.0539  0.9338
    4NME    CH3   29  14.776  12.527  10.382 -0.3922 -0.1711 -0.9592
    4NME   HH31   30  14.784  12.452  10.460 -0.4771  2.2332  1.5161
    4NME   HH32   31  14.855  12.510  10.308 -0.2488  0.4774 -0.9595
    4NME   HH33   32  14.784  12.621  10.437 -1.9864 -0.7783  0.3930
  20.99041  20.99041  20.99041
