Protein
   42
    1ACE   HH31    1  10.779   2.939   8.314  2.0407 -2.0931  0.5964
    1ACE    CH3    2  10.872   2.992   8.294  0.5122  0.2899 -0.6156
    1ACE   HH32    3  10.864   3.098   8.322  0.0851  0.1813 -0.3146
    1ACE   HH33    4  10.902   2.978   8.190  0.0358 -2.5564 -0.4376
    1ACE      C    5  10.982   2.932   8.379  0.4183 -0.2233  0.7561
    1ACE      O    6  10.961   2.849   8.465  0.1914 -0.2273 -0.0020
    2ALA      N    7  11.109   2.976   8.357 -0.0750 -0.3578 -0.1409
    2ALA      H    8  11.115   3.049   8.287  1.1849 -0.3870 -0.0760
    2ALA     CA    9  11.236   2.957   8.431  0.4719 -1.0659 -0.2525
    2ALA     HA   10  11.307   3.001   8.362  0.1732 -2.7780 -1.7509
    2ALA     CB   11  11.239   3.045   8.551  0.2721 -0.2307  0.3335
    2ALA    HB1   12  11.206   3.143   8.516  1.9368  0.5412  0.8473
    2ALA    HB2   13  11.169   3.011   8.628 -0.8406  0.3768 -0.3884
    2ALA    HB3   14  11.342   3.047   8.585  0.9001  0.5984 -1.5228
    2ALA      C   15  11.296   2.816   8.471  0.3743 -0.3559 -0.8035
    2ALA      O   16  11.414   2.800   8.493  0.3440  0.2120  0.2420
    3ALA      N   17  11.214   2.712   8.481 -0.4257  0.1508 -0.4004
    3ALA      H   18  11.117   2.736   8.467 -0.3669  0.2814 -0.5977
    3ALA     CA   19  11.254   2.576   8.530 -0.5389 -0.1326 -0.3077
    3ALA     HA   20  11.161   2.520   8.530 -0.5632 -0.1588  1.6943
    3ALA     CB   21  11.335   2.511   8.413  0.0897 -0.5215 -0.2780
    3ALA    HB1   22  11.429   2.564   8.397 -1.1358  1.6792 -0.5536
    3ALA    HB2   23  11.364   2.406   8.426 -0.0771 -0.7981 -1.9313
    3ALA    HB3   24  11.275   2.524   8.323  0.3100 -1.1295 -0.5220
    3ALA      C   25  11.323   2.562   8.672  0.4628 -0.5380 -0.5709
    3ALA      O   26  11.298   2.463   8.737 -0.9460 -0.1439  0.5626
    4ALA      N   27  11.408   2.654   8.728 -0.3821  0.2903  0.5824
    4ALA      H   28  11.431   2.723   8.658  0.0876 -0.4009  0.0501
    4ALA     CA   29  11.506   2.649   8.844  0.0517 -0.4570 -0.0545
    4ALA     HA   30  11.450   2.624   8.933 -0.5879 -1.6129 -0.7590
    4ALA     CB   31  11.600   2.536   8.810  0.4888  0.8755  0.0629
    4ALA    HB1   32  11.626   2.544   8.704 -0.6088 -0.8469 -0.3739
    4ALA    HB2   33  11.696   2.529   8.860 -0.3484 -1.6612  1.4636
    4ALA    HB3   34  11.552   2.438   8.807 -0.2597  1.2222 -2.2999
    4ALA      C   35  11.593   2.771   8.872 -0.2228 -0.3800  0.6715
    4ALA      O   36  11.663   2.774   8.972 -0.8517  0.3597 -0.6567
    5NME      N   37  11.580   2.873   8.787  0.3769  0.4653  1.0793
    5NME      H   38  11.519   2.854   8.709 -0.9702 -0.5342  2.3002
    5NME    CH3   39  11.631   3.007   8.800  0.0906 -0.8557 -0.4268
    5NME   HH31   40  11.656   3.062   8.710  3.5434  1.6791  1.8534
    5NME   HH32   41  11.556   3.056   8.862 -1.3097 -2.6766 -0.5967
    5NME   HH33   42  11.729   3.009   8.848 -0.9757 -1.3961  1.9503
  20.91516  20.91516  20.91516
