Protein
   42
    1ACE   HH31    1  10.549  11.009  10.217 -0.8071  0.2449 -0.5673
    1ACE    CH3    2  10.612  11.061  10.145  0.8978 -0.5264  0.3137
    1ACE   HH32    3  10.704  11.102  10.186  1.6222 -1.4226 -0.3942
    1ACE   HH33    4  10.560  11.151  10.112  2.9110  0.8160  0.6285
    1ACE      C    5  10.648  10.971  10.028  0.3171 -0.1740  0.0317
    1ACE      O    6  10.603  10.858  10.026 -0.0849 -0.1436 -0.7961
    2ALA      N    7  10.712  11.027   9.927  0.0783 -0.8194  0.1134
    2ALA      H    8  10.730  11.125   9.942 -0.3565 -0.5202 -1.2452
    2ALA     CA    9  10.756  10.977   9.795 -0.3759 -0.7142  0.4536
    2ALA     HA   10  10.677  10.975   9.719  1.5390 -1.4096 -1.6343
    2ALA     CB   11  10.860  11.084   9.744  0.4965  0.4804 -0.1187
    2ALA    HB1   12  10.912  11.058   9.652  1.0787 -2.8301  1.0338
    2ALA    HB2   13  10.804  11.178   9.734  0.4661  0.3679 -1.3187
    2ALA    HB3   14  10.933  11.103   9.822  1.0330 -1.7741 -0.0035
    2ALA      C   15  10.814  10.835   9.787  0.1009 -0.5694 -0.7650
    2ALA      O   16  10.861  10.797   9.681  0.0304  0.4515 -0.3664
    3ALA      N   17  10.810  10.757   9.895 -0.0428  0.2023  0.2669
    3ALA      H   18  10.755  10.794   9.971 -0.4272  0.7275 -0.2625
    3ALA     CA   19  10.882  10.629   9.911  0.1405  0.0490  0.3098
    3ALA     HA   20  10.846  10.555   9.839 -1.0695  0.9737 -0.0693
    3ALA     CB   21  11.035  10.643   9.890  0.2210  0.1456 -0.3081
    3ALA    HB1   22  11.063  10.683   9.793  2.6610 -0.5194  0.0710
    3ALA    HB2   23  11.073  10.709   9.968  1.5455 -1.4591  0.4582
    3ALA    HB3   24  11.091  10.551   9.910 -0.8216 -0.0675  1.9009
    3ALA      C   25  10.848  10.569  10.053 -0.2902  0.3558  0.5407
    3ALA      O   26  10.924  10.589  10.147 -0.5946  0.0833  0.1006
    4ALA      N   27  10.724  10.511  10.065 -0.7536 -0.1507  0.0113
    4ALA      H   28  10.662  10.510   9.986 -1.2058 -1.6762  0.3403
    4ALA     CA   29  10.661  10.470  10.192  0.3123 -0.0757  0.1607
    4ALA     HA   30  10.732  10.486  10.273  0.2264 -0.2025  0.2625
    4ALA     CB   31  10.548  10.563  10.213  0.1165 -0.8442 -0.6424
    4ALA    HB1   32  10.503  10.535  10.308  0.4762 -2.4944 -0.9301
    4ALA    HB2   33  10.584  10.665  10.217  0.1138 -0.6828 -3.2068
    4ALA    HB3   34  10.472  10.562  10.135 -1.0528 -0.3378  0.4564
    4ALA      C   35  10.622  10.326  10.187  0.1985  0.3668  0.0913
    4ALA      O   36  10.507  10.278  10.198  0.2860 -0.3400  0.2024
    5NME      N   37  10.722  10.238  10.170 -0.0067  0.5861 -0.0806
    5NME      H   38  10.817  10.272  10.173 -0.1820  1.3082 -1.5878
    5NME    CH3   39  10.711  10.093  10.151  0.3625  0.3806  0.0126
    5NME   HH31   40  10.763  10.038  10.230  2.0431 -0.8056 -1.8237
    5NME   HH32   41  10.606  10.064  10.159  1.0890 -2.1832  1.4541
    5NME   HH33   42  10.749  10.071  10.051 -0.3021  1.4277 -0.4895
  20.91516  20.91516  20.91516
