Protein
   32
    1ACE   HH31    1  12.252  10.520  18.295  0.4110 -0.4568 -1.1223
    1ACE    CH3    2  12.168  10.458  18.263 -0.2650  0.2813 -0.8154
    1ACE   HH32    3  12.071  10.507  18.274  0.0122  0.6812 -0.0077
    1ACE   HH33    4  12.162  10.370  18.328 -0.9425  1.7382  1.2008
    1ACE      C    5  12.180  10.404  18.118  0.4522 -0.6568 -0.2074
    1ACE      O    6  12.081  10.348  18.077  0.2259  0.3673  0.1347
    2ALA      N    7  12.301  10.421  18.056  0.0689 -0.2529  0.3559
    2ALA      H    8  12.370  10.474  18.107  1.6901 -1.5458 -0.3598
    2ALA     CA    9  12.348  10.356  17.929  0.2478  0.5442  0.6221
    2ALA     HA   10  12.294  10.409  17.851  0.5324  2.3383  1.5834
    2ALA     CB   11  12.491  10.391  17.896 -0.1181 -0.0019  0.5389
    2ALA    HB1   12  12.515  10.355  17.796 -0.5945 -1.3456  0.8849
    2ALA    HB2   13  12.501  10.498  17.915  3.6956  0.0823 -1.0311
    2ALA    HB3   14  12.558  10.337  17.962  2.5169  2.6983  0.3024
    2ALA      C   15  12.317  10.202  17.905  0.5583 -0.2655  0.4668
    2ALA      O   16  12.401  10.130  17.850  0.1757  0.4499 -0.1643
    3ALA      N   17  12.206  10.146  17.951 -0.1122  0.2141 -0.1106
    3ALA      H   18  12.136  10.205  17.992 -2.3245  0.1804 -3.4447
    3ALA     CA   19  12.176  10.001  17.954 -0.7040 -0.1991 -0.3853
    3ALA     HA   20  12.267   9.956  17.915 -0.0304  1.4499 -0.7833
    3ALA     CB   21  12.167   9.956  18.101  0.1315 -0.6726  0.9678
    3ALA    HB1   22  12.075   9.989  18.149  0.6049  0.2452  1.2847
    3ALA    HB2   23  12.180   9.848  18.112  4.6836 -0.3866  0.6000
    3ALA    HB3   24  12.261   9.995  18.142  0.6558  1.3140 -1.8523
    3ALA      C   25  12.059   9.956  17.876  0.3507  0.4294  0.7127
    3ALA      O   26  11.975  10.037  17.834 -0.0882  0.0020  0.2860
    4NME      N   27  12.055   9.824  17.845  0.1543  0.0329  0.2033
    4NME      H   28  12.136   9.766  17.866  0.1214  0.0016  0.2385
    4NME    CH3   29  11.944   9.761  17.767  0.0434  0.8181 -0.2218
    4NME   HH31   30  11.933   9.807  17.668  0.6808  0.3457 -0.5109
    4NME   HH32   31  11.968   9.657  17.745  0.1031  0.6802  0.4538
    4NME   HH33   32  11.853   9.778  17.825  0.5821  0.3891  0.7615
  20.99041  20.99041  20.99041
