Protein
   42
    1ACE   HH31    1  14.390   3.453   8.888  0.2929  0.0262  0.0881
    1ACE    CH3    2  14.306   3.417   8.948  0.1063  0.1387 -0.0950
    1ACE   HH32    3  14.332   3.457   9.047  2.2406  1.6105 -1.1475
    1ACE   HH33    4  14.300   3.309   8.956 -0.3886  0.1378 -0.4381
    1ACE      C    5  14.175   3.444   8.888 -0.3028 -0.5526 -0.2265
    1ACE      O    6  14.099   3.351   8.853  0.1316 -0.5303 -0.5506
    2ALA      N    7  14.168   3.569   8.846  0.3995  0.9488  0.1164
    2ALA      H    8  14.252   3.619   8.869 -0.4973  2.5732 -0.0361
    2ALA     CA    9  14.056   3.631   8.771 -0.3580  0.3814 -0.3083
    2ALA     HA   10  14.026   3.574   8.682 -4.1071  1.1163  0.3048
    2ALA     CB   11  13.937   3.631   8.858  0.0040 -0.1340 -0.1633
    2ALA    HB1   12  13.959   3.680   8.953  1.1244 -1.4805  0.3004
    2ALA    HB2   13  13.850   3.678   8.812 -0.0429  0.3310  0.3757
    2ALA    HB3   14  13.899   3.531   8.876  0.3208  0.0566  1.7630
    2ALA      C   15  14.099   3.775   8.738  0.3600  0.8335  0.9577
    2ALA      O   16  14.161   3.844   8.818 -0.0059  0.0891 -0.4189
    3ALA      N   17  14.045   3.837   8.626  0.1549  0.4762 -0.1220
    3ALA      H   18  14.047   3.938   8.618 -0.3979  0.4213 -1.1685
    3ALA     CA   19  13.997   3.777   8.498 -0.5783 -0.3832  0.6977
    3ALA     HA   20  13.900   3.728   8.503  0.0840 -1.8963 -0.6958
    3ALA     CB   21  13.981   3.892   8.399 -0.5162  0.4167 -0.3955
    3ALA    HB1   22  14.062   3.964   8.413  1.5197 -1.0147 -3.7598
    3ALA    HB2   23  13.982   3.846   8.300  0.2388 -2.8061  0.9835
    3ALA    HB3   24  13.889   3.950   8.408 -1.1578 -0.8296  1.6395
    3ALA      C   25  14.096   3.668   8.448  0.2989 -0.0536  0.0690
    3ALA      O   26  14.058   3.560   8.409 -0.0070  0.4249  0.1024
    4ALA      N   27  14.222   3.709   8.450 -0.4326  0.4166  0.3084
    4ALA      H   28  14.247   3.797   8.492  0.0925  0.2599  0.3362
    4ALA     CA   29  14.338   3.618   8.426 -0.2307  0.0834  0.5901
    4ALA     HA   30  14.323   3.568   8.330 -1.4801  0.9736  0.2771
    4ALA     CB   31  14.465   3.703   8.400  0.5852 -0.4238 -0.5189
    4ALA    HB1   32  14.505   3.745   8.492 -0.7562 -1.0925  0.4169
    4ALA    HB2   33  14.539   3.640   8.351 -0.0619 -1.0503 -0.7045
    4ALA    HB3   34  14.439   3.775   8.323 -0.9736 -0.3643  0.0135
    4ALA      C   35  14.359   3.501   8.530 -0.1724 -0.0024 -0.5376
    4ALA      O   36  14.442   3.512   8.618  0.2941  0.5295 -0.1200
    5NME      N   37  14.279   3.391   8.512  0.0985 -0.0302  0.0474
    5NME      H   38  14.210   3.402   8.439 -0.1816  2.0485  0.5480
    5NME    CH3   39  14.288   3.270   8.587  0.7254  0.2117 -0.4002
    5NME   HH31   40  14.189   3.225   8.587  0.9007 -0.1896  0.2718
    5NME   HH32   41  14.352   3.200   8.533 -1.2683 -1.2492 -0.9896
    5NME   HH33   42  14.309   3.289   8.692 -1.1214 -1.3044  0.3064
  20.91516  20.91516  20.91516
