Protein
   22
    1ACE   HH31    1   7.256   3.875   3.806 -0.0857  1.3885 -0.3222
    1ACE    CH3    2   7.300   3.904   3.711  0.0848 -0.1931 -0.7376
    1ACE   HH32    3   7.403   3.877   3.691  0.6671  0.9455  0.5985
    1ACE   HH33    4   7.306   4.012   3.712  2.1795 -0.2637  0.4232
    1ACE      C    5   7.210   3.863   3.597  0.1824 -0.4151  0.1938
    1ACE      O    6   7.171   3.949   3.517  0.5408  0.2798 -0.8313
    2ALA      N    7   7.185   3.727   3.593  0.1949 -0.4149  0.5366
    2ALA      H    8   7.235   3.679   3.667  0.7900  0.3486  0.6427
    2ALA     CA    9   7.068   3.656   3.530  0.4363 -0.3902 -0.5529
    2ALA     HA   10   7.069   3.665   3.422  1.2243  1.9398 -0.4119
    2ALA     CB   11   7.071   3.506   3.564  0.0212 -0.2501  0.1224
    2ALA    HB1   12   7.168   3.472   3.528 -0.0048 -1.1341  0.8497
    2ALA    HB2   13   7.063   3.486   3.671 -2.0114 -0.3705  0.0041
    2ALA    HB3   14   6.985   3.466   3.511 -0.8055  3.4967 -1.6830
    2ALA      C   15   6.929   3.719   3.574  0.8297 -0.2892 -1.0195
    2ALA      O   16   6.837   3.729   3.498 -0.1217 -0.4936  0.6645
    3NME      N   17   6.918   3.751   3.705  0.1575  0.5637  0.1602
    3NME      H   18   7.000   3.734   3.760  0.7843  3.0299  0.0818
    3NME    CH3   19   6.802   3.822   3.757  0.2830  0.2709  0.4685
    3NME   HH31   20   6.710   3.765   3.746  1.6197 -2.5298  2.5493
    3NME   HH32   21   6.830   3.849   3.859  0.2229  0.3102  0.4764
    3NME   HH33   22   6.783   3.918   3.709 -1.1176 -0.0042  0.4291
  10.72160  10.72160  10.72160
