Protein
   42
    1ACE   HH31    1   5.562  15.857   9.689 -0.1488  2.6869 -2.6010
    1ACE    CH3    2   5.575  15.944   9.754  0.2587  0.1502  0.9939
    1ACE   HH32    3   5.679  15.977   9.749  0.2814 -0.0240  0.1631
    1ACE   HH33    4   5.551  15.912   9.856  0.3067  0.2432  1.0360
    1ACE      C    5   5.482  16.052   9.700  0.1134  0.3682  0.4437
    1ACE      O    6   5.466  16.057   9.580  0.1067 -0.1586 -0.0915
    2ALA      N    7   5.412  16.124   9.791 -0.0038 -0.3783 -0.1601
    2ALA      H    8   5.429  16.122   9.890  1.5218  1.6533 -0.3082
    2ALA     CA    9   5.297  16.206   9.769  0.4949 -0.1882 -0.2143
    2ALA     HA   10   5.321  16.272   9.685  0.3337  0.3934  0.1932
    2ALA     CB   11   5.170  16.125   9.743 -0.3750 -0.6508  0.0660
    2ALA    HB1   12   5.076  16.178   9.759  1.2471  1.8777  2.0130
    2ALA    HB2   13   5.175  16.089   9.640  0.7084  0.0197 -0.1285
    2ALA    HB3   14   5.164  16.038   9.808  0.0344 -0.8587 -0.1709
    2ALA      C   15   5.288  16.296   9.902  0.0882 -0.5154  0.2003
    2ALA      O   16   5.328  16.250  10.011 -0.0563 -0.5359  0.3895
    3ALA      N   17   5.246  16.420   9.882  0.0885  0.6679  0.3189
    3ALA      H   18   5.219  16.428   9.785  0.4911 -3.2382 -0.3120
    3ALA     CA   19   5.245  16.534   9.971  0.1570 -0.0669  0.4192
    3ALA     HA   20   5.229  16.627   9.915 -0.4826  0.8247  1.9856
    3ALA     CB   21   5.125  16.524  10.066 -0.0016 -0.2017 -0.6028
    3ALA    HB1   22   5.030  16.511  10.015  0.1429 -1.7818 -0.4916
    3ALA    HB2   23   5.138  16.435  10.128 -0.4795  0.6428  0.7564
    3ALA    HB3   24   5.117  16.605  10.139 -2.0991 -2.1157  1.4522
    3ALA      C   25   5.380  16.557  10.042 -0.3377  0.3335 -0.3060
    3ALA      O   26   5.435  16.664  10.024 -0.3480 -0.1027 -0.4548
    4ALA      N   27   5.427  16.468  10.134 -0.6413  0.0714  0.7214
    4ALA      H   28   5.380  16.379  10.136  2.1631 -1.5082  0.6834
    4ALA     CA   29   5.541  16.486  10.225  0.0940  0.6467  0.0433
    4ALA     HA   30   5.599  16.569  10.187 -0.4967  1.0918  0.1041
    4ALA     CB   31   5.498  16.529  10.368  0.4653 -0.1316  0.0643
    4ALA    HB1   32   5.440  16.621  10.358 -0.6588 -0.8227 -0.0128
    4ALA    HB2   33   5.446  16.445  10.413  1.3119 -2.0183 -2.2840
    4ALA    HB3   34   5.591  16.553  10.419 -0.2700  0.8590  0.9927
    4ALA      C   35   5.636  16.360  10.231  0.4188  0.2091 -0.2965
    4ALA      O   36   5.745  16.368  10.290 -0.3199 -0.1670 -0.5075
    5NME      N   37   5.591  16.251  10.174  0.1267  0.0599 -0.0291
    5NME      H   38   5.495  16.259  10.143  0.2759  1.2428 -0.2118
    5NME    CH3   39   5.657  16.121  10.165  0.2788 -0.4360  0.1634
    5NME   HH31   40   5.621  16.069  10.076 -0.8734  0.9075 -0.2160
    5NME   HH32   41   5.764  16.139  10.160  0.1600  0.6479  1.0295
    5NME   HH33   42   5.637  16.063  10.255 -1.5446 -0.0298  0.0594
  20.91516  20.91516  20.91516
