Protein
   42
    1ACE   HH31    1  11.350  10.372  12.642 -0.0683  1.9561  0.3528
    1ACE    CH3    2  11.241  10.364  12.635  0.0762 -0.2628 -0.2326
    1ACE   HH32    3  11.193  10.275  12.595  0.1996 -0.1507 -0.6379
    1ACE   HH33    4  11.205  10.445  12.571 -0.6786 -0.6011 -0.2382
    1ACE      C    5  11.184  10.391  12.767  0.0217  0.3344 -0.0500
    1ACE      O    6  11.119  10.308  12.827  0.1941  0.0545 -0.5968
    2ALA      N    7  11.207  10.515  12.807 -0.8064 -0.4378  0.1106
    2ALA      H    8  11.271  10.572  12.755 -0.5489  0.4780  1.3997
    2ALA     CA    9  11.186  10.581  12.940 -0.5638 -0.6946  0.6797
    2ALA     HA   10  11.092  10.635  12.949 -0.9175 -1.1512 -0.0753
    2ALA     CB   11  11.202  10.487  13.060  0.2794  0.2817  0.6775
    2ALA    HB1   12  11.203  10.556  13.145  1.0953  1.0211  0.0708
    2ALA    HB2   13  11.121  10.415  13.069 -0.4706  0.4676 -3.0765
    2ALA    HB3   14  11.303  10.447  13.053  1.6989  3.8335 -4.2711
    2ALA      C   15  11.292  10.699  12.941  0.2297  0.5770  0.5020
    2ALA      O   16  11.366  10.730  12.843  0.2230 -0.0675  0.6570
    3ALA      N   17  11.281  10.785  13.046 -0.0274  0.2663  0.2618
    3ALA      H   18  11.216  10.763  13.120  0.8159 -0.6218  0.7567
    3ALA     CA   19  11.370  10.896  13.063  0.3508 -0.1271  0.0582
    3ALA     HA   20  11.436  10.905  12.976 -0.0963 -1.9298 -0.5169
    3ALA     CB   21  11.292  11.028  13.060  0.6228  0.1514  0.2335
    3ALA    HB1   22  11.215  11.029  13.138  1.8822 -1.0633  1.5643
    3ALA    HB2   23  11.349  11.120  13.076  0.1987  0.3534  0.6167
    3ALA    HB3   24  11.230  11.040  12.971  0.7103  1.3644  0.3210
    3ALA      C   25  11.458  10.891  13.189 -0.2561  0.2773 -0.2913
    3ALA      O   26  11.413  10.823  13.283 -0.2708 -0.2647  0.5913
    4ALA      N   27  11.574  10.955  13.186 -0.4106  0.4650  0.5514
    4ALA      H   28  11.588  11.008  13.101 -1.6719 -1.0400 -0.6722
    4ALA     CA   29  11.681  10.931  13.286  0.2371  0.5387 -0.5134
    4ALA     HA   30  11.692  10.825  13.310  3.3564  1.6226  4.0942
    4ALA     CB   31  11.818  10.964  13.225  0.3366  0.2573  0.7491
    4ALA    HB1   32  11.897  10.916  13.283  1.5216 -0.9051 -1.6903
    4ALA    HB2   33  11.819  10.914  13.128 -0.2098  0.1319  0.8022
    4ALA    HB3   34  11.837  11.071  13.217 -1.7742  0.8794  3.0713
    4ALA      C   35  11.668  10.990  13.433 -0.1987  0.7556  0.8206
    4ALA      O   36  11.744  11.076  13.466  0.1161 -0.7862 -1.0953
    5NME      N   37  11.566  10.948  13.506 -0.2360  0.0035 -0.0016
    5NME      H   38  11.500  10.888  13.459  1.9404 -1.7244 -0.9546
    5NME    CH3   39  11.533  11.007  13.635 -0.7966  0.2555  0.0182
    5NME   HH31   40  11.563  11.112  13.646  1.1204 -0.2581  0.0589
    5NME   HH32   41  11.430  10.983  13.660 -0.6960  1.0791  1.3867
    5NME   HH33   42  11.599  10.950  13.701 -2.7734 -1.6016  0.5086
  20.91516  20.91516  20.91516
