Protein
   32
    1ACE   HH31    1   7.536   7.351  10.079 -0.5007 -1.2060  0.0041
    1ACE    CH3    2   7.610   7.343   9.999 -0.0707  0.4433  0.1959
    1ACE   HH32    3   7.615   7.440   9.950 -1.5542 -0.0790 -1.0923
    1ACE   HH33    4   7.591   7.258   9.933  1.1563  0.3028  0.0061
    1ACE      C    5   7.747   7.311  10.059 -0.3144  0.5536 -0.0278
    1ACE      O    6   7.750   7.294  10.178  0.7109 -0.0218 -0.1094
    2ALA      N    7   7.856   7.307   9.978 -0.5113 -0.1509 -0.4609
    2ALA      H    8   7.842   7.307   9.878 -0.2189  0.0666 -0.5024
    2ALA     CA    9   7.993   7.295  10.026  0.2019 -0.1568 -0.3236
    2ALA     HA   10   8.023   7.192  10.042  1.6043  0.4807  1.6287
    2ALA     CB   11   8.088   7.351   9.915  0.0682 -0.3941  0.1583
    2ALA    HB1   12   8.071   7.302   9.819  1.1831  3.3606 -2.1902
    2ALA    HB2   13   8.078   7.460   9.912  3.3537  0.0079 -1.7961
    2ALA    HB3   14   8.195   7.339   9.932  0.1530 -0.1417 -0.1758
    2ALA      C   15   8.038   7.365  10.152  0.2420  0.1404  0.3542
    2ALA      O   16   8.137   7.321  10.206  0.4421  0.4807 -0.0820
    3ALA      N   17   7.977   7.479  10.190 -0.5256  0.5181  0.6308
    3ALA      H   18   7.893   7.502  10.138  0.1718  1.7265 -0.0002
    3ALA     CA   19   8.005   7.550  10.307 -0.0394  0.4092 -0.6079
    3ALA     HA   20   8.069   7.499  10.379  0.6512  1.4013 -0.5044
    3ALA     CB   21   8.081   7.677  10.270  0.0921 -0.4284 -0.0250
    3ALA    HB1   22   8.173   7.648  10.220 -0.4052 -0.9250 -0.6572
    3ALA    HB2   23   8.023   7.733  10.197  1.0379 -1.1718 -1.3887
    3ALA    HB3   24   8.104   7.745  10.352 -0.0779  0.0716 -0.3877
    3ALA      C   25   7.877   7.565  10.396 -0.1998 -0.7546  0.2579
    3ALA      O   26   7.822   7.676  10.404 -0.0187 -0.6230 -0.2784
    4NME      N   27   7.827   7.455  10.454  0.2486  0.0940  0.6360
    4NME      H   28   7.878   7.369  10.440 -0.7003 -0.6655  1.7393
    4NME    CH3   29   7.704   7.461  10.534 -0.1322  0.5769  0.5625
    4NME   HH31   30   7.683   7.366  10.583 -1.2774  0.5981  0.1414
    4NME   HH32   31   7.705   7.551  10.596 -0.4703  0.3404  0.9096
    4NME   HH33   32   7.624   7.481  10.463  0.6754  1.3768 -0.1531
  20.99041  20.99041  20.99041
