Protein
   42
    1ACE   HH31    1  13.278  13.241  15.097 -3.4997 -0.1591  4.0020
    1ACE    CH3    2  13.274  13.134  15.075  0.2304  0.2314 -0.0130
    1ACE   HH32    3  13.367  13.081  15.098 -0.3938 -0.4730  0.9796
    1ACE   HH33    4  13.247  13.115  14.971  1.7305  1.6742 -0.6990
    1ACE      C    5  13.157  13.095  15.159  0.1261 -0.2279 -0.1054
    1ACE      O    6  13.054  13.166  15.159  0.1138  0.5332 -0.1655
    2ALA      N    7  13.178  12.999  15.244 -0.2537  0.1880 -1.2190
    2ALA      H    8  13.263  12.948  15.224  1.1400  2.3245 -1.0469
    2ALA     CA    9  13.077  12.936  15.333 -0.1495 -0.4626 -0.1287
    2ALA     HA   10  12.984  12.954  15.280 -1.3084 -2.5368  1.0760
    2ALA     CB   11  13.096  12.781  15.352 -0.5508 -0.7016  0.4568
    2ALA    HB1   12  13.058  12.759  15.452  1.2038 -0.8415  1.1266
    2ALA    HB2   13  13.046  12.717  15.279 -0.6613 -0.0384 -0.0531
    2ALA    HB3   14  13.202  12.755  15.360  0.4752  2.9772  0.6571
    2ALA      C   15  13.079  13.014  15.467  0.2631 -0.7079  0.1910
    2ALA      O   16  13.175  13.007  15.542 -0.0518  0.0937 -0.4452
    3ALA      N   17  12.980  13.104  15.505 -0.4010  0.0144  0.2380
    3ALA      H   18  13.014  13.160  15.581 -4.2803 -1.3934  3.3624
    3ALA     CA   19  12.843  13.139  15.462 -0.5155 -1.2624  0.1527
    3ALA     HA   20  12.779  13.141  15.551 -1.7029  0.9085 -0.6532
    3ALA     CB   21  12.847  13.284  15.414 -0.2055 -1.0341  0.0516
    3ALA    HB1   22  12.912  13.338  15.484 -0.9577 -1.0626  0.7874
    3ALA    HB2   23  12.894  13.292  15.316  0.1536  0.5351  0.3126
    3ALA    HB3   24  12.751  13.335  15.423  0.0507 -0.7965  1.7592
    3ALA      C   25  12.783  13.038  15.364 -0.4895  0.7357 -0.8202
    3ALA      O   26  12.785  12.920  15.397  0.3478 -0.7353 -0.1750
    4ALA      N   27  12.728  13.074  15.251  0.5750  0.5473 -0.8056
    4ALA      H   28  12.709  13.172  15.232 -4.8108 -0.1775 -0.7627
    4ALA     CA   29  12.685  12.994  15.151  0.0457 -0.7509  1.1151
    4ALA     HA   30  12.748  12.905  15.148  1.9191  0.4508  2.2917
    4ALA     CB   31  12.534  12.965  15.163  0.5407  0.2052 -0.0232
    4ALA    HB1   32  12.501  12.905  15.078  0.6062  0.7995 -0.4778
    4ALA    HB2   33  12.519  12.919  15.260  0.2911 -1.6892 -0.9139
    4ALA    HB3   34  12.479  13.059  15.170  2.1613  1.1594  0.9007
    4ALA      C   35  12.716  13.061  15.012 -0.6543 -0.4877 -0.1658
    4ALA      O   36  12.649  13.027  14.912 -0.6786  0.2530 -0.1660
    5NME      N   37  12.815  13.153  15.013  0.1212  0.4606  0.0613
    5NME      H   38  12.877  13.166  15.091  0.1336  1.4832 -0.1156
    5NME    CH3   39  12.857  13.225  14.897 -0.3377 -0.2586 -0.0926
    5NME   HH31   40  12.864  13.164  14.807 -1.3008 -0.0344 -0.3306
    5NME   HH32   41  12.789  13.301  14.860 -1.6489 -1.9124 -1.2464
    5NME   HH33   42  12.951  13.277  14.917 -1.3292  1.0704  1.2774
  20.91516  20.91516  20.91516
