Protein
   42
    1ACE   HH31    1  13.479   8.550   9.967 -2.3255 -4.2559  0.4579
    1ACE    CH3    2  13.416   8.591   9.887  0.5959  0.9469  0.3915
    1ACE   HH32    3  13.433   8.695   9.861  1.0709 -0.0228 -3.7940
    1ACE   HH33    4  13.310   8.593   9.911  0.8918 -1.4793  2.4902
    1ACE      C    5  13.436   8.513   9.761 -0.5796  0.1821 -0.6933
    1ACE      O    6  13.343   8.442   9.730  0.6154 -0.7471  0.3686
    2ALA      N    7  13.549   8.523   9.691  0.6581 -0.5492  0.7416
    2ALA      H    8  13.623   8.587   9.717  2.1696 -1.9591  0.1373
    2ALA     CA    9  13.563   8.451   9.567 -0.1840  0.2503 -0.3389
    2ALA     HA   10  13.479   8.476   9.502 -1.6712  0.3510  1.5198
    2ALA     CB   11  13.696   8.487   9.488  0.2275  0.0020 -0.3926
    2ALA    HB1   12  13.686   8.578   9.430  2.1140 -0.1368 -0.9919
    2ALA    HB2   13  13.769   8.500   9.568  0.9055  1.9931 -1.2832
    2ALA    HB3   14  13.737   8.422   9.411 -0.7591 -1.3434  0.1520
    2ALA      C   15  13.558   8.301   9.585  0.0041  0.1668  0.4737
    2ALA      O   16  13.630   8.255   9.676  0.5990 -0.2389 -0.2480
    3ALA      N   17  13.485   8.220   9.505  0.2650  0.7780  1.2696
    3ALA      H   18  13.487   8.128   9.547 -2.1427  0.0239 -0.0074
    3ALA     CA   19  13.405   8.234   9.384 -0.3753  0.9053  0.1719
    3ALA     HA   20  13.475   8.262   9.305 -0.2203  0.2242  0.0667
    3ALA     CB   21  13.363   8.090   9.355 -0.4961  0.2072 -0.4377
    3ALA    HB1   22  13.456   8.034   9.360  1.1457  2.8484  1.8787
    3ALA    HB2   23  13.291   8.052   9.427 -0.3233 -1.3133 -1.0443
    3ALA    HB3   24  13.312   8.083   9.259  0.1762  0.9398 -0.8632
    3ALA      C   25  13.281   8.328   9.366  0.0717 -0.0866 -0.0575
    3ALA      O   26  13.249   8.372   9.261  0.8917 -0.6680 -0.3630
    4ALA      N   27  13.217   8.368   9.477 -0.6778  0.0846 -0.5392
    4ALA      H   28  13.263   8.353   9.565 -1.4764 -0.0977 -0.1376
    4ALA     CA   29  13.089   8.444   9.476 -0.3644  0.2870 -0.1880
    4ALA     HA   30  13.037   8.437   9.380 -0.7073  2.9539 -0.2835
    4ALA     CB   31  12.989   8.363   9.566  0.2750 -0.5363 -0.0284
    4ALA    HB1   32  12.896   8.419   9.567  0.8143  0.3692  0.2763
    4ALA    HB2   33  12.982   8.263   9.523  0.9893  0.2812 -2.2206
    4ALA    HB3   34  13.030   8.375   9.666  2.4389  2.7274 -1.1218
    4ALA      C   35  13.105   8.590   9.514 -0.1990 -0.3882  0.0452
    4ALA      O   36  13.013   8.673   9.488 -0.4842  0.6353 -0.2605
    5NME      N   37  13.222   8.640   9.553 -0.0091  0.1150  0.4052
    5NME      H   38  13.281   8.569   9.595  1.0081  0.8640  0.2938
    5NME    CH3   39  13.248   8.776   9.591 -0.3836  0.6811  0.0645
    5NME   HH31   40  13.351   8.801   9.615 -0.7393  3.7215 -1.1528
    5NME   HH32   41  13.230   8.842   9.506 -0.3695  3.1337  1.8641
    5NME   HH33   42  13.181   8.804   9.672  1.4596 -1.3370  2.4460
  20.91516  20.91516  20.91516
