Protein
   42
    1ACE   HH31    1  10.072  14.466  15.270  1.4864 -1.7106  1.7154
    1ACE    CH3    2  10.085  14.573  15.285  0.0909 -1.2302 -0.1799
    1ACE   HH32    3  10.049  14.596  15.385 -2.5445 -0.4490 -1.2263
    1ACE   HH33    4  10.041  14.630  15.203 -1.9259 -1.3020  0.8061
    1ACE      C    5  10.238  14.599  15.277  0.6851 -0.1623  0.4793
    1ACE      O    6  10.277  14.659  15.179  0.2840 -0.3783  0.6602
    2ALA      N    7  10.324  14.547  15.361  0.3293 -0.2388 -0.4200
    2ALA      H    8  10.282  14.484  15.429 -2.8923  0.9953 -1.1299
    2ALA     CA    9  10.472  14.555  15.353  0.1432 -0.7826  0.1443
    2ALA     HA   10  10.498  14.607  15.261  0.1333 -0.8409  0.1068
    2ALA     CB   11  10.519  14.637  15.479  0.2400 -0.7143  0.1408
    2ALA    HB1   12  10.469  14.591  15.565  1.3475 -1.5151  0.3878
    2ALA    HB2   13  10.623  14.633  15.509  0.1987 -1.1495  0.2440
    2ALA    HB3   14  10.488  14.741  15.472 -2.2193 -1.4630 -2.1153
    2ALA      C   15  10.539  14.416  15.341 -0.1841  0.1774  0.2856
    2ALA      O   16  10.521  14.325  15.422  0.5273 -0.5171  0.5270
    3ALA      N   17  10.611  14.385  15.228 -0.0993  1.1631 -0.2094
    3ALA      H   18  10.632  14.287  15.229 -1.2747  0.8337  2.6276
    3ALA     CA   19  10.692  14.474  15.140 -0.1358 -0.3997 -0.1774
    3ALA     HA   20  10.624  14.518  15.067  0.6661  1.4436  0.1219
    3ALA     CB   21  10.771  14.584  15.229  0.0855  0.7575  0.0623
    3ALA    HB1   22  10.844  14.639  15.169  1.3926 -0.6449  0.3172
    3ALA    HB2   23  10.707  14.655  15.280 -1.6491 -1.7974  1.6884
    3ALA    HB3   24  10.832  14.534  15.304 -0.7950 -1.2199 -0.4769
    3ALA      C   25  10.798  14.396  15.069 -0.3017 -0.2540 -0.1725
    3ALA      O   26  10.841  14.291  15.120  0.3316 -0.1977 -0.0270
    4ALA      N   27  10.839  14.439  14.951 -0.0122  0.0691  0.1478
    4ALA      H   28  10.816  14.532  14.920  0.3352 -0.2917 -1.2636
    4ALA     CA   29  10.930  14.363  14.858 -0.3365 -0.0730 -0.4713
    4ALA     HA   30  10.958  14.270  14.908 -0.0551  1.3940  2.2774
    4ALA     CB   31  10.852  14.327  14.734  0.0904 -0.1390 -0.3806
    4ALA    HB1   32  10.832  14.416  14.675  1.0865 -0.0721 -0.6245
    4ALA    HB2   33  10.917  14.259  14.679  2.5201  0.7891  1.1352
    4ALA    HB3   34  10.755  14.286  14.762  0.1668  0.7514  1.3918
    4ALA      C   35  11.069  14.432  14.828 -0.5119  0.0239 -0.5353
    4ALA      O   36  11.074  14.547  14.794 -0.1179  0.6504 -0.4886
    5NME      N   37  11.183  14.360  14.840  0.4250 -0.3564 -0.0209
    5NME      H   38  11.176  14.265  14.874  1.2775 -0.2611  0.4425
    5NME    CH3   39  11.318  14.411  14.804  0.1574  0.0773 -0.0326
    5NME   HH31   40  11.323  14.470  14.713  0.1647  0.5605  0.2749
    5NME   HH32   41  11.368  14.473  14.878  0.4305  0.9419 -0.9085
    5NME   HH33   42  11.383  14.324  14.790 -1.0190 -0.5584 -1.9284
  20.91516  20.91516  20.91516
