Protein
   42
    1ACE   HH31    1   4.792  12.844  11.206  1.7411 -0.3743 -0.1052
    1ACE    CH3    2   4.769  12.744  11.170 -0.4238  0.3979 -1.0650
    1ACE   HH32    3   4.750  12.677  11.254  0.1929 -1.8122 -2.6066
    1ACE   HH33    4   4.850  12.695  11.117  0.5113 -1.3787  1.7793
    1ACE      C    5   4.644  12.747  11.087  1.1297  0.6320  0.3013
    1ACE      O    6   4.651  12.715  10.971  0.2405 -0.1592  0.3642
    2ALA      N    7   4.529  12.767  11.151 -0.3910  0.2240  0.1202
    2ALA      H    8   4.544  12.766  11.251  0.3674 -0.4670  0.0176
    2ALA     CA    9   4.394  12.752  11.102 -0.0368  0.8448 -0.1086
    2ALA     HA   10   4.390  12.656  11.051 -1.7319  0.6839  0.2689
    2ALA     CB   11   4.310  12.737  11.224 -0.1132  0.5644 -0.1161
    2ALA    HB1   12   4.336  12.828  11.277  0.5665  0.5860 -0.4668
    2ALA    HB2   13   4.204  12.725  11.202  0.0724 -2.2466  0.0352
    2ALA    HB3   14   4.343  12.649  11.280 -0.1767 -0.1267 -1.1354
    2ALA      C   15   4.354  12.848  10.987  0.0509 -0.2863 -0.3621
    2ALA      O   16   4.237  12.855  10.951 -0.7554 -0.3488 -0.4131
    3ALA      N   17   4.455  12.933  10.945 -0.4384  0.1767  0.5387
    3ALA      H   18   4.547  12.908  10.978 -0.6648 -0.8823  0.4413
    3ALA     CA   19   4.441  13.031  10.837 -0.0798 -0.4590  0.6847
    3ALA     HA   20   4.368  12.998  10.763  1.3232 -0.5450 -0.7034
    3ALA     CB   21   4.387  13.165  10.889  0.3159  0.2501  0.8514
    3ALA    HB1   22   4.365  13.236  10.809 -0.5159  0.3013  1.1080
    3ALA    HB2   23   4.297  13.138  10.945  1.1896 -0.4246  1.9765
    3ALA    HB3   24   4.446  13.211  10.968  1.6154 -1.7799  1.1525
    3ALA      C   25   4.576  13.054  10.772  0.3804  0.6169  0.3408
    3ALA      O   26   4.646  13.153  10.795 -0.3278  0.1964  0.3747
    4ALA      N   27   4.607  12.951  10.701  0.5088 -0.3411  0.3810
    4ALA      H   28   4.540  12.877  10.686  0.1928 -0.2014  1.1352
    4ALA     CA   29   4.733  12.936  10.624  0.1183 -0.2986  0.8979
    4ALA     HA   30   4.772  13.037  10.608 -1.2909  0.2289  0.6372
    4ALA     CB   31   4.836  12.862  10.711  0.2766  0.1712 -0.1237
    4ALA    HB1   32   4.814  12.863  10.817  1.5151  0.0341  0.1475
    4ALA    HB2   33   4.829  12.758  10.680 -2.1965  0.4902 -0.9190
    4ALA    HB3   34   4.930  12.913  10.693  0.2748  0.2369  0.0514
    4ALA      C   35   4.710  12.874  10.482 -0.3987  0.5765  0.2219
    4ALA      O   36   4.601  12.819  10.450  0.3068 -0.1601  0.1261
    5NME      N   37   4.820  12.861  10.406  0.1228 -0.8217  0.0611
    5NME      H   38   4.908  12.895  10.443  1.5580 -3.6933 -0.3727
    5NME    CH3   39   4.833  12.786  10.276  0.1728 -0.1664  0.1296
    5NME   HH31   40   4.864  12.860  10.203 -1.7832 -0.2802 -0.8666
    5NME   HH32   41   4.906  12.707  10.295 -0.7894 -1.2363 -0.4807
    5NME   HH33   42   4.739  12.736  10.255  0.1456 -0.0398 -0.0501
  20.91516  20.91516  20.91516
