Protein
   32
    1ACE   HH31    1   5.884  12.247  12.154 -0.1859  3.7696  1.0077
    1ACE    CH3    2   5.985  12.269  12.119  0.3009 -0.0375 -0.3952
    1ACE   HH32    3   5.992  12.377  12.132  2.3568 -0.0873 -0.6525
    1ACE   HH33    4   5.994  12.241  12.014 -0.0541 -0.1526 -0.3966
    1ACE      C    5   6.084  12.193  12.203 -0.3739  0.0876 -0.6444
    1ACE      O    6   6.065  12.079  12.234  0.4264  0.0973 -0.1682
    2ALA      N    7   6.193  12.262  12.237  0.6142  0.5970 -0.5741
    2ALA      H    8   6.202  12.349  12.186 -1.4674 -0.2725 -2.5888
    2ALA     CA    9   6.295  12.222  12.331  0.3076 -0.0413 -0.1366
    2ALA     HA   10   6.378  12.293  12.331  0.1024  0.2036 -0.7805
    2ALA     CB   11   6.240  12.226  12.472  0.8852 -0.0199 -0.0357
    2ALA    HB1   12   6.150  12.167  12.486  0.1503  0.9206 -0.6512
    2ALA    HB2   13   6.322  12.192  12.536  1.0609 -0.5415 -0.5175
    2ALA    HB3   14   6.199  12.325  12.494 -2.2326 -0.8430 -1.5540
    2ALA      C   15   6.362  12.088  12.284 -0.0149 -0.3420 -0.2940
    2ALA      O   16   6.437  12.093  12.182 -0.0010  0.1967 -0.3521
    3ALA      N   17   6.322  11.973  12.336  0.4137 -0.1577  0.2646
    3ALA      H   18   6.243  11.978  12.398  1.4494 -1.0280  1.7268
    3ALA     CA   19   6.359  11.838  12.287  0.7506  0.2186 -0.2197
    3ALA     HA   20   6.375  11.839  12.179  1.2584 -2.4623 -0.2214
    3ALA     CB   21   6.490  11.818  12.358 -0.2609 -0.1929 -0.3156
    3ALA    HB1   22   6.480  11.795  12.464  3.2261 -2.1305 -0.2903
    3ALA    HB2   23   6.523  11.721  12.321 -1.6184 -0.6468 -0.4027
    3ALA    HB3   24   6.571  11.889  12.343 -0.5615  0.3961  0.7106
    3ALA      C   25   6.246  11.729  12.306 -0.4222 -0.0204  0.1235
    3ALA      O   26   6.278  11.611  12.323 -0.3034  0.5668  0.5872
    4NME      N   27   6.121  11.772  12.323  0.1278 -0.0431  0.4881
    4NME      H   28   6.092  11.868  12.309 -0.0409 -0.3475 -1.2601
    4NME    CH3   29   6.015  11.677  12.357  0.0103 -0.8218  0.2425
    4NME   HH31   30   5.915  11.721  12.350  0.4138  0.3326  1.2483
    4NME   HH32   31   6.010  11.588  12.296  0.8290 -0.3839 -0.4731
    4NME   HH33   32   6.034  11.642  12.459  0.5330  2.1382  1.2836
  20.99041  20.99041  20.99041
