Protein
   32
    1ACE   HH31    1  11.729  13.912   6.839  0.2517 -1.8021 -1.2258
    1ACE    CH3    2  11.770  13.988   6.773 -0.4688 -0.5421 -0.2736
    1ACE   HH32    3  11.875  14.003   6.796  0.0702 -3.4970 -0.4751
    1ACE   HH33    4  11.733  14.090   6.769 -1.0747 -0.7849 -3.4565
    1ACE      C    5  11.759  13.933   6.635  0.2206 -0.0418  0.0379
    1ACE      O    6  11.748  13.813   6.615 -0.7081 -0.8983  0.2665
    2ALA      N    7  11.739  14.016   6.533 -0.0834  0.2087 -0.5645
    2ALA      H    8  11.745  14.113   6.559 -0.3468 -0.1922  1.2299
    2ALA     CA    9  11.728  13.994   6.393 -0.0881 -0.4172  0.2677
    2ALA     HA   10  11.655  13.914   6.384  0.7543 -1.1054 -0.6621
    2ALA     CB   11  11.684  14.125   6.330  0.2181 -0.3144  0.2659
    2ALA    HB1   12  11.758  14.205   6.330 -2.4831  2.4151 -0.7390
    2ALA    HB2   13  11.668  14.111   6.223 -0.4901  1.4986  0.0954
    2ALA    HB3   14  11.598  14.173   6.378  1.0081  0.4994  0.9033
    2ALA      C   15  11.860  13.933   6.329 -0.3724 -0.1018  0.1303
    2ALA      O   16  11.914  13.990   6.235  0.1996  0.0458 -0.1563
    3ALA      N   17  11.917  13.825   6.386  0.4461  0.1738 -0.0899
    3ALA      H   18  11.865  13.776   6.458  1.3366 -2.5641 -1.1871
    3ALA     CA   19  12.032  13.742   6.341 -0.4900  0.1204 -0.1502
    3ALA     HA   20  12.129  13.781   6.369 -1.1057  1.6877 -0.0500
    3ALA     CB   21  12.015  13.602   6.411 -0.7610 -1.1355  0.6814
    3ALA    HB1   22  12.061  13.534   6.339  0.6581  1.7007 -1.2647
    3ALA    HB2   23  12.060  13.584   6.508  1.6841 -2.3071 -0.5582
    3ALA    HB3   24  11.907  13.587   6.414 -0.9403 -0.6455 -1.4343
    3ALA      C   25  12.045  13.734   6.184 -0.3074  0.0087  0.2118
    3ALA      O   26  12.160  13.741   6.131 -0.0132 -0.3295  0.8057
    4NME      N   27  11.938  13.699   6.115 -0.0476 -0.2247 -0.7030
    4NME      H   28  11.848  13.709   6.158 -0.6666  1.2062 -2.2257
    4NME    CH3   29  11.939  13.708   5.971  0.0343 -0.0030  0.6452
    4NME   HH31   30  11.961  13.811   5.943 -1.4889  0.0287 -0.5549
    4NME   HH32   31  12.010  13.644   5.920 -1.5510  1.0294 -3.2334
    4NME   HH33   32  11.845  13.676   5.926 -1.0229  2.9349  0.5538
  20.99041  20.99041  20.99041
