Protein
   22
    1ACE   HH31    1   5.496   6.969   0.627  0.8752  2.5699  0.1131
    1ACE    CH3    2   5.471   6.986   0.522 -0.0819  0.5051 -0.0222
    1ACE   HH32    3   5.536   7.063   0.482  0.6609  0.5321  1.1895
    1ACE   HH33    4   5.367   7.020   0.513 -0.2139  0.4561  1.0912
    1ACE      C    5   5.493   6.850   0.455  0.6998  0.4996  0.1873
    1ACE      O    6   5.570   6.837   0.359 -0.5762 -0.6336 -0.2909
    2ALA      N    7   5.423   6.746   0.504 -0.2106 -0.1507 -0.2562
    2ALA      H    8   5.359   6.768   0.579  0.1697 -0.2656  0.1091
    2ALA     CA    9   5.448   6.607   0.475 -0.4100  0.4182 -0.0081
    2ALA     HA   10   5.490   6.602   0.374 -0.9679  0.4212 -0.2461
    2ALA     CB   11   5.551   6.548   0.569 -1.1380  0.8586  1.0676
    2ALA    HB1   12   5.641   6.609   0.565 -1.5632  1.5661 -3.8739
    2ALA    HB2   13   5.515   6.528   0.670 -0.4686 -4.0764  0.5882
    2ALA    HB3   14   5.577   6.450   0.527  0.5903  1.8623 -0.3403
    2ALA      C   15   5.327   6.519   0.489 -0.4673 -0.6378 -0.1356
    2ALA      O   16   5.231   6.561   0.559  0.2766 -0.2238  0.3043
    3NME      N   17   5.322   6.415   0.410 -0.3650 -0.3074  0.4219
    3NME      H   18   5.404   6.392   0.356 -0.1433  0.1394  0.5652
    3NME    CH3   19   5.218   6.312   0.416  0.2712  0.1677 -0.1753
    3NME   HH31   20   5.235   6.247   0.501  0.2493  1.4549  0.8446
    3NME   HH32   21   5.121   6.362   0.423  0.1658 -0.0139 -0.3153
    3NME   HH33   22   5.235   6.246   0.330  0.1658 -2.3917  1.6458
  10.72160  10.72160  10.72160
