Protein
   42
    1ACE   HH31    1  10.435   8.339  14.068 -1.4107 -0.4222 -0.1085
    1ACE    CH3    2  10.381   8.373  14.156 -0.2473  0.2071  0.3888
    1ACE   HH32    3  10.448   8.409  14.235  0.6973  0.8956 -0.6987
    1ACE   HH33    4  10.312   8.305  14.206  1.7684 -0.3208  2.6328
    1ACE      C    5  10.298   8.486  14.111  0.6146 -0.4200 -0.5181
    1ACE      O    6  10.317   8.606  14.138  0.2716  0.2990  0.1293
    2ALA      N    7  10.194   8.454  14.031  0.2941  0.5207  0.0983
    2ALA      H    8  10.180   8.361  13.993 -2.2000  0.7771  0.2367
    2ALA     CA    9  10.091   8.550  13.982 -0.1367  0.2637 -0.7298
    2ALA     HA   10  10.016   8.481  13.941  0.7820 -1.4156  0.3145
    2ALA     CB   11  10.008   8.619  14.099 -0.1112  0.3670 -0.0383
    2ALA    HB1   12  10.077   8.650  14.178 -0.8993  0.0884  0.7770
    2ALA    HB2   13   9.948   8.703  14.064  2.1339  0.5567 -4.0411
    2ALA    HB3   14   9.944   8.547  14.150 -0.1409  0.3089 -0.1624
    2ALA      C   15  10.145   8.633  13.868  0.2497  0.0186 -0.4120
    2ALA      O   16  10.115   8.607  13.750  0.1578 -0.6700  0.3706
    3ALA      N   17  10.212   8.742  13.901 -0.1261  0.0584 -0.6631
    3ALA      H   18  10.232   8.756  13.999  0.6278 -1.5534 -0.5678
    3ALA     CA   19  10.294   8.814  13.809 -0.0976  0.0960  0.2219
    3ALA     HA   20  10.221   8.869  13.749 -2.1549 -1.9686  0.7252
    3ALA     CB   21  10.401   8.895  13.886 -0.4258  0.7243 -0.0967
    3ALA    HB1   22  10.351   8.960  13.958  0.1110  0.6693  0.3413
    3ALA    HB2   23  10.466   8.821  13.933 -0.0635  0.3743 -1.1272
    3ALA    HB3   24  10.460   8.949  13.813 -0.7674  1.8306  0.4315
    3ALA      C   25  10.364   8.720  13.706 -0.0471  0.6521  0.2765
    3ALA      O   26  10.391   8.762  13.595 -1.2962 -0.8307 -0.4850
    4ALA      N   27  10.409   8.600  13.747  0.5163  0.2149  0.5908
    4ALA      H   28  10.396   8.573  13.843  3.1064 -0.7427  0.7574
    4ALA     CA   29  10.459   8.494  13.657  0.2652 -0.3025 -0.3932
    4ALA     HA   30  10.433   8.524  13.556 -0.8240 -1.2667 -0.4221
    4ALA     CB   31  10.601   8.483  13.689 -0.1716  0.4464 -0.0062
    4ALA    HB1   32  10.620   8.455  13.793  0.5324  1.7309  0.2286
    4ALA    HB2   33  10.637   8.402  13.625  0.2136 -0.0032  0.7667
    4ALA    HB3   34  10.667   8.568  13.670  0.8155 -0.1185  0.8148
    4ALA      C   35  10.387   8.362  13.685 -0.2315  0.7862  1.0690
    4ALA      O   36  10.324   8.350  13.788 -0.1939  0.8526 -0.1218
    5NME      N   37  10.391   8.269  13.584 -0.0860 -0.3818 -0.0325
    5NME      H   38  10.435   8.296  13.498  0.3371 -0.9081  0.0137
    5NME    CH3   39  10.328   8.136  13.577  0.5859 -0.3187  0.0176
    5NME   HH31   40  10.293   8.111  13.677 -1.2907  0.6231 -0.3544
    5NME   HH32   41  10.241   8.142  13.512  1.4376 -1.5313 -1.2812
    5NME   HH33   42  10.392   8.057  13.538  1.0316  0.8435 -1.7350
  20.91516  20.91516  20.91516
