Protein
   32
    1ACE   HH31    1  10.383  10.826  12.999  3.2198  3.3869 -0.6771
    1ACE    CH3    2  10.349  10.890  13.080 -0.3558  0.2639  0.5783
    1ACE   HH32    3  10.388  10.991  13.073 -0.9859  0.6533  2.2148
    1ACE   HH33    4  10.378  10.836  13.171  1.5829  0.0887 -0.0973
    1ACE      C    5  10.197  10.894  13.093  0.4037 -0.2894  0.9020
    1ACE      O    6  10.140  11.001  13.114  0.2977  0.2214  0.1124
    2ALA      N    7  10.131  10.780  13.088  0.8148  0.1069 -0.0336
    2ALA      H    8  10.180  10.691  13.090  0.5829 -0.1284 -2.4207
    2ALA     CA    9   9.980  10.769  13.054 -0.4529  0.2754 -0.2981
    2ALA     HA   10   9.969  10.670  13.010  0.3970  0.4205 -0.8697
    2ALA     CB   11   9.894  10.761  13.182  0.3536 -0.0975 -0.0191
    2ALA    HB1   12   9.800  10.715  13.152 -1.0399  2.0257  0.8805
    2ALA    HB2   13   9.943  10.686  13.244 -2.4688 -2.2209 -0.1227
    2ALA    HB3   14   9.875  10.860  13.222  2.0688  1.3917 -2.5404
    2ALA      C   15   9.931  10.864  12.944 -0.4254  0.6896 -0.7496
    2ALA      O   16  10.005  10.915  12.858 -0.0599 -0.4758 -0.2288
    3ALA      N   17   9.801  10.890  12.953  0.6189  0.3831  0.1956
    3ALA      H   18   9.751  10.853  13.032 -0.4409  0.1257 -0.5678
    3ALA     CA   19   9.727  10.997  12.889  0.1273 -0.0190  0.9935
    3ALA     HA   20   9.738  10.974  12.784 -0.1136  1.1148  0.7067
    3ALA     CB   21   9.571  10.982  12.902 -0.3865  0.3325 -0.4947
    3ALA    HB1   22   9.534  11.047  12.823 -2.4792 -0.0982  0.0851
    3ALA    HB2   23   9.540  10.882  12.872 -1.7759  0.0889  1.5677
    3ALA    HB3   24   9.532  11.021  12.996  2.0443  1.5674  0.0724
    3ALA      C   25   9.777  11.137  12.915 -0.2710 -0.4773 -0.5674
    3ALA      O   26   9.710  11.240  12.882 -0.5156 -0.0177 -0.2189
    4NME      N   27   9.897  11.154  12.973  0.1447  0.6918  0.4715
    4NME      H   28   9.945  11.070  13.004 -1.7779 -0.1440  1.4446
    4NME    CH3   29   9.962  11.272  13.021 -0.2702  0.1329  0.1231
    4NME   HH31   30   9.909  11.308  13.110 -0.1867  0.1129  0.1818
    4NME   HH32   31  10.062  11.246  13.055 -0.2613  0.2834  0.2167
    4NME   HH33   32   9.977  11.348  12.944  1.9841 -0.5381 -0.1341
  20.99041  20.99041  20.99041
