Protein
   42
    1ACE   HH31    1  19.085  11.814  12.222  0.0720 -0.2195  1.0184
    1ACE    CH3    2  19.152  11.748  12.166 -0.3226 -0.0579  0.3442
    1ACE   HH32    3  19.094  11.685  12.100 -1.0940  1.4261 -0.4537
    1ACE   HH33    4  19.219  11.694  12.232  0.9093 -0.6586 -1.3215
    1ACE      C    5  19.228  11.841  12.075 -0.8096 -0.8823 -0.6549
    1ACE      O    6  19.177  11.891  11.980  0.1481  0.0546 -0.0159
    2ALA      N    7  19.353  11.866  12.114  0.0492  0.1485  0.1223
    2ALA      H    8  19.375  11.835  12.207 -1.8875 -0.3632  0.4631
    2ALA     CA    9  19.462  11.930  12.034  0.6825  0.0829  0.6008
    2ALA     HA   10  19.492  12.030  12.066  2.2650 -0.3108  0.4835
    2ALA     CB   11  19.593  11.848  12.061  0.0817  0.9658 -0.1218
    2ALA    HB1   12  19.680  11.893  12.013  0.1782  0.8755 -0.0324
    2ALA    HB2   13  19.626  11.862  12.165  1.7283  1.7414 -0.7067
    2ALA    HB3   14  19.582  11.743  12.034 -0.4788  0.9034  0.3325
    2ALA      C   15  19.435  11.943  11.881  0.6426  0.2332  0.8452
    2ALA      O   16  19.463  11.848  11.808 -0.3476 -0.3800 -0.6799
    3ALA      N   17  19.377  12.053  11.834  0.0420 -0.4771  0.6063
    3ALA      H   18  19.375  12.068  11.734  0.8852 -2.3606  0.2825
    3ALA     CA   19  19.319  12.162  11.907 -0.5610  0.2860  0.2358
    3ALA     HA   20  19.322  12.133  12.012 -0.8560 -0.3926  0.0585
    3ALA     CB   21  19.394  12.290  11.871  0.0393  0.9272 -1.1487
    3ALA    HB1   22  19.395  12.314  11.764  1.7524  0.4616 -1.2616
    3ALA    HB2   23  19.357  12.372  11.932 -1.9578 -1.1129  0.5757
    3ALA    HB3   24  19.500  12.270  11.885 -0.3026 -1.3508 -1.4325
    3ALA      C   25  19.171  12.187  11.894 -0.1816  0.1628  0.4530
    3ALA      O   26  19.106  12.225  11.989  0.2517 -0.5300  0.1415
    4ALA      N   27  19.118  12.170  11.770 -0.3331 -0.4737  0.4090
    4ALA      H   28  19.188  12.147  11.700 -1.1909  0.7817 -0.9094
    4ALA     CA   29  18.977  12.193  11.727 -0.3327 -0.0273 -0.2193
    4ALA     HA   30  18.940  12.291  11.755  0.4170  0.2483 -0.1918
    4ALA     CB   31  18.985  12.197  11.575  0.5314  0.0601 -0.9958
    4ALA    HB1   32  18.890  12.228  11.532  0.0194  4.0414  2.3930
    4ALA    HB2   33  19.065  12.268  11.554  1.3597 -0.5917 -0.0932
    4ALA    HB3   34  19.023  12.105  11.530 -2.3550 -0.2178 -3.2118
    4ALA      C   35  18.877  12.084  11.784 -0.1734  0.4598  0.5098
    4ALA      O   36  18.760  12.088  11.745 -0.4438  0.2744  0.0352
    5NME      N   37  18.922  11.988  11.876 -0.0069  0.0468  0.6127
    5NME      H   38  19.014  12.002  11.915  0.4389  1.9431 -0.9473
    5NME    CH3   39  18.836  11.888  11.936  0.3343 -0.7784  0.1856
    5NME   HH31   40  18.879  11.852  12.030 -0.7485  2.4946  2.1037
    5NME   HH32   41  18.743  11.940  11.961 -1.0808 -2.0184 -2.1852
    5NME   HH33   42  18.816  11.808  11.866  0.9101 -0.8213  0.0608
  20.91516  20.91516  20.91516
