Protein
   42
    1ACE   HH31    1  10.963  15.399  16.944  0.1233  0.0596  0.7417
    1ACE    CH3    2  10.924  15.500  16.931  0.0109 -0.0305  0.3628
    1ACE   HH32    3  10.820  15.515  16.900  0.2631  1.6619  0.2198
    1ACE   HH33    4  10.990  15.556  16.865 -0.8599  0.2674 -0.2757
    1ACE      C    5  10.936  15.568  17.063  0.0415  0.0255 -0.0008
    1ACE      O    6  11.030  15.640  17.086  0.2645  0.2967  0.2865
    2ALA      N    7  10.842  15.535  17.156  0.0790 -0.5422 -0.0808
    2ALA      H    8  10.764  15.486  17.115  1.1613  0.4459 -3.6426
    2ALA     CA    9  10.861  15.529  17.303 -0.1859 -0.7052  0.3175
    2ALA     HA   10  10.855  15.630  17.344  1.7940  0.8897 -2.8696
    2ALA     CB   11  10.738  15.450  17.358  0.2991  0.6838 -0.1450
    2ALA    HB1   12  10.728  15.350  17.315 -3.1495  0.6668  0.4992
    2ALA    HB2   13  10.748  15.446  17.466  1.1000  1.2823 -0.1809
    2ALA    HB3   14  10.645  15.499  17.332  0.0689  0.5291  0.3716
    2ALA      C   15  10.997  15.474  17.352  0.6426  0.0465 -0.1797
    2ALA      O   16  11.010  15.353  17.371  0.1399 -0.2326 -0.0715
    3ALA      N   17  11.101  15.550  17.374 -0.2068 -0.1425 -0.2770
    3ALA      H   18  11.176  15.486  17.396 -0.1970 -0.0084  0.0889
    3ALA     CA   19  11.126  15.695  17.395  0.3322 -0.7495  0.7079
    3ALA     HA   20  11.053  15.750  17.335  1.3233 -2.5583 -2.3819
    3ALA     CB   21  11.102  15.731  17.542 -0.2284  0.5110 -0.0309
    3ALA    HB1   22  11.082  15.837  17.556 -0.2281  0.5786 -0.5259
    3ALA    HB2   23  11.003  15.690  17.564  0.2774  0.4945  2.4628
    3ALA    HB3   24  11.171  15.691  17.616 -1.3779  0.0265  0.8274
    3ALA      C   25  11.261  15.736  17.343  0.0133 -0.4826  0.5712
    3ALA      O   26  11.356  15.767  17.414  0.2980  0.2913 -0.1624
    4ALA      N   27  11.273  15.708  17.217 -0.4202  1.0233  0.5675
    4ALA      H   28  11.189  15.668  17.177  0.4712 -1.5332  1.0083
    4ALA     CA   29  11.397  15.725  17.134  0.7067  0.3637 -0.2120
    4ALA     HA   30  11.375  15.694  17.032  0.9424  1.1177 -0.4978
    4ALA     CB   31  11.422  15.876  17.114  0.5691  0.2704 -0.0733
    4ALA    HB1   32  11.329  15.918  17.075  0.1061 -1.2722 -0.6953
    4ALA    HB2   33  11.442  15.918  17.212  0.9095 -2.3405  1.0250
    4ALA    HB3   34  11.503  15.906  17.048  1.2821  0.4522  0.8673
    4ALA      C   35  11.521  15.638  17.162  0.0501 -0.2725 -0.9185
    4ALA      O   36  11.582  15.586  17.075 -0.8760  0.8643  0.1594
    5NME      N   37  11.566  15.642  17.288  0.1108  0.2007  0.4402
    5NME      H   38  11.499  15.697  17.339 -1.2404  0.2463 -1.2769
    5NME    CH3   39  11.667  15.556  17.355  0.3102 -0.0620 -0.3400
    5NME   HH31   40  11.678  15.585  17.459 -0.3262  0.3330 -0.3800
    5NME   HH32   41  11.632  15.453  17.343  2.3842 -1.1625  2.0523
    5NME   HH33   42  11.769  15.575  17.322 -0.2011  0.8279 -1.5175
  20.91516  20.91516  20.91516
