Protein
   42
    1ACE   HH31    1   4.839  17.052   9.942 -0.5311  0.7114  1.4843
    1ACE    CH3    2   4.814  17.147   9.895 -0.4177  0.0921  0.1114
    1ACE   HH32    3   4.765  17.134   9.799 -1.2510  1.1171  0.3695
    1ACE   HH33    4   4.907  17.205   9.885 -0.8198  0.7263 -0.0025
    1ACE      C    5   4.711  17.221   9.976 -0.2986  0.1196 -0.1228
    1ACE      O    6   4.597  17.222   9.936  0.0856  0.2509  0.3585
    2ALA      N    7   4.756  17.271  10.093 -0.6203 -0.3513  0.2195
    2ALA      H    8   4.855  17.275  10.108 -0.4814 -0.9563 -0.4560
    2ALA     CA    9   4.684  17.363  10.174  0.1572 -0.4997 -0.2700
    2ALA     HA   10   4.578  17.346  10.159 -0.3224  1.3803  0.6865
    2ALA     CB   11   4.725  17.326  10.316 -0.3536 -0.4453 -0.0136
    2ALA    HB1   12   4.659  17.376  10.388 -0.7933  1.0637 -1.4153
    2ALA    HB2   13   4.712  17.219  10.337 -0.9474  0.1576  3.3919
    2ALA    HB3   14   4.827  17.352  10.344 -0.7694 -0.3113  1.4417
    2ALA      C   15   4.728  17.506  10.128 -0.8448 -0.2468 -1.0284
    2ALA      O   16   4.840  17.519  10.081  0.4440 -0.0716 -0.6507
    3ALA      N   17   4.656  17.610  10.155  0.5814 -0.1956 -0.0141
    3ALA      H   18   4.704  17.695  10.128 -1.2473  0.3543 -1.7930
    3ALA     CA   19   4.509  17.625  10.176 -0.0720  0.3529 -0.1633
    3ALA     HA   20   4.489  17.598  10.280  3.2141  0.9039  0.7330
    3ALA     CB   21   4.477  17.778  10.175  0.4513  0.3565 -0.1320
    3ALA    HB1   22   4.521  17.839  10.096 -0.6790  0.4044 -0.7465
    3ALA    HB2   23   4.369  17.796  10.178  0.7971  2.3678  1.8453
    3ALA    HB3   24   4.533  17.821  10.258  1.7707 -1.0549 -0.2509
    3ALA      C   25   4.406  17.540  10.092  0.2605 -0.0602  0.5018
    3ALA      O   26   4.311  17.488  10.144  0.2223 -0.0291 -0.1485
    4ALA      N   27   4.428  17.539   9.962 -0.7343  0.0118  0.1626
    4ALA      H   28   4.498  17.600   9.920 -0.8446 -0.5307 -0.8400
    4ALA     CA   29   4.370  17.453   9.863  0.2749 -0.1305  0.7439
    4ALA     HA   30   4.368  17.351   9.902 -2.4946 -0.1486  0.8181
    4ALA     CB   31   4.232  17.500   9.830  0.1060 -0.5371 -0.3320
    4ALA    HB1   32   4.175  17.442   9.757 -1.0581 -0.1082  0.1993
    4ALA    HB2   33   4.172  17.485   9.920 -1.4253  2.6352 -0.6858
    4ALA    HB3   34   4.235  17.606   9.803 -0.8747 -0.8120 -1.6134
    4ALA      C   35   4.453  17.448   9.737 -0.0007 -0.8014 -0.3650
    4ALA      O   36   4.496  17.559   9.696 -0.7651  0.2455  0.2793
    5NME      N   37   4.475  17.334   9.677  0.3021 -0.3065  0.5762
    5NME      H   38   4.436  17.255   9.726 -2.6537  0.2648 -0.6971
    5NME    CH3   39   4.553  17.312   9.551 -0.7383 -0.7142 -0.2333
    5NME   HH31   40   4.578  17.208   9.528 -0.7188 -0.7865  0.1157
    5NME   HH32   41   4.501  17.351   9.464  0.1764 -3.3899 -2.0820
    5NME   HH33   42   4.652  17.357   9.562 -0.1642 -1.4543 -2.1194
  20.91516  20.91516  20.91516
