Protein
   32
    1ACE   HH31    1  14.052  10.348  12.577  0.5598 -1.1618 -0.7100
    1ACE    CH3    2  14.028  10.288  12.664 -0.3832 -0.1198 -0.2177
    1ACE   HH32    3  13.923  10.308  12.688 -0.6198  0.5793 -1.7490
    1ACE   HH33    4  14.092  10.310  12.749 -1.0342  0.2314  0.1987
    1ACE      C    5  14.048  10.145  12.620  0.1407  0.5738  0.2830
    1ACE      O    6  14.142  10.118  12.544 -0.0900 -0.3898 -0.1252
    2ALA      N    7  13.969  10.055  12.680  0.3707 -0.3672  0.5376
    2ALA      H    8  13.900  10.096  12.742  0.0178  2.4496 -1.5248
    2ALA     CA    9  13.958   9.907  12.680 -0.1701 -0.0768 -0.3548
    2ALA     HA   10  13.965   9.893  12.787  0.4788  2.8170  0.0613
    2ALA     CB   11  13.822   9.863  12.644  0.2458 -0.3018  0.9311
    2ALA    HB1   12  13.792   9.879  12.541 -1.0179  3.4747  1.7396
    2ALA    HB2   13  13.813   9.756  12.666 -1.7239 -0.4801 -0.4543
    2ALA    HB3   14  13.749   9.921  12.700  1.1670  0.6989  1.1187
    2ALA      C   15  14.063   9.826  12.612 -0.2493  0.7083  0.5313
    2ALA      O   16  14.104   9.726  12.675  0.1292 -0.2716  0.1842
    3ALA      N   17  14.105   9.860  12.492  0.0393 -0.3903  0.2700
    3ALA      H   18  14.063   9.941  12.449  0.0040  0.3931  1.6866
    3ALA     CA   19  14.196   9.767  12.416  0.5847 -0.3658 -0.1925
    3ALA     HA   20  14.254   9.703  12.482 -2.0501 -2.2673  0.4237
    3ALA     CB   21  14.097   9.672  12.337 -0.3076  0.0453 -0.1611
    3ALA    HB1   22  14.039   9.723  12.260  1.6904 -0.9635 -2.4462
    3ALA    HB2   23  14.150   9.587  12.294  0.9827  0.7084  0.0713
    3ALA    HB3   24  14.024   9.637  12.410  0.5252 -1.3394  0.0266
    3ALA      C   25  14.282   9.838  12.315 -0.1446  0.2853 -0.3662
    3ALA      O   26  14.335   9.770  12.229  0.5830 -0.5935  0.5835
    4NME      N   27  14.288   9.973  12.326 -0.0330  0.3587 -0.5259
    4NME      H   28  14.238  10.017  12.402 -1.1616  0.6845 -1.4297
    4NME    CH3   29  14.362  10.055  12.232  0.1551 -0.7666  0.5890
    4NME   HH31   30  14.469  10.062  12.251  0.7614 -1.1818 -2.2295
    4NME   HH32   31  14.344  10.027  12.128 -3.3242  2.5363  0.1144
    4NME   HH33   32  14.305  10.147  12.244  0.3085 -0.4644 -0.7892
  20.99041  20.99041  20.99041
