Protein
   32
    1ACE   HH31    1   7.628  14.197  15.265  0.8467  1.4683  1.2500
    1ACE    CH3    2   7.657  14.274  15.194 -0.2587  0.2669 -0.6014
    1ACE   HH32    3   7.612  14.370  15.223 -0.2416 -0.3631  1.6261
    1ACE   HH33    4   7.623  14.250  15.093 -1.8789 -0.4480  0.0696
    1ACE      C    5   7.804  14.288  15.180  0.2806 -0.1313 -0.1271
    1ACE      O    6   7.845  14.353  15.083  0.0082  0.3306 -0.4668
    2ALA      N    7   7.882  14.231  15.275  0.5986 -0.1238  0.0128
    2ALA      H    8   7.833  14.174  15.343 -0.3089 -0.7200 -1.1063
    2ALA     CA    9   8.024  14.247  15.281 -0.1015 -0.5991  0.2816
    2ALA     HA   10   8.054  14.321  15.207  0.5373 -0.3040  0.8065
    2ALA     CB   11   8.065  14.299  15.414 -0.9647  0.1346 -0.0951
    2ALA    HB1   12   8.026  14.232  15.491 -0.2147  1.0426  1.1294
    2ALA    HB2   13   8.174  14.297  15.409 -1.0026 -0.4366 -0.7817
    2ALA    HB3   14   8.012  14.393  15.431 -1.2923  0.3514 -2.0484
    2ALA      C   15   8.096  14.123  15.234  0.0991 -0.7319 -0.1558
    2ALA      O   16   8.042  14.013  15.237  0.7228 -0.5819  0.3259
    3ALA      N   17   8.222  14.139  15.184  0.0812  0.1742 -1.2313
    3ALA      H   18   8.272  14.226  15.195  0.4959 -0.2284  0.4737
    3ALA     CA   19   8.312  14.028  15.159 -0.2803 -0.3221 -0.0460
    3ALA     HA   20   8.270  13.981  15.070 -0.6693 -0.6965  0.3298
    3ALA     CB   21   8.456  14.073  15.124  0.3624  0.4700 -0.3235
    3ALA    HB1   22   8.438  14.132  15.034 -1.5079  0.9609  0.3366
    3ALA    HB2   23   8.498  14.133  15.205  0.7518 -1.5127  1.0321
    3ALA    HB3   24   8.512  13.985  15.092 -0.4706  0.0024 -0.4972
    3ALA      C   25   8.311  13.922  15.274  0.7263 -0.7673  0.0287
    3ALA      O   26   8.309  13.962  15.391 -0.0141  0.2787  0.0145
    4NME      N   27   8.322  13.792  15.237  0.1945 -0.3079 -0.8669
    4NME      H   28   8.315  13.777  15.137 -0.8778  1.9623 -1.1739
    4NME    CH3   29   8.331  13.689  15.345 -0.1300 -0.0145  0.6476
    4NME   HH31   30   8.264  13.711  15.428  2.1621  0.6932  2.4434
    4NME   HH32   31   8.299  13.595  15.301 -0.9998  0.8817 -0.6893
    4NME   HH33   32   8.429  13.680  15.392  1.0865  1.5335 -1.4267
  20.99041  20.99041  20.99041
