Protein
   42
    1ACE   HH31    1   9.616   6.086  10.550 -0.9352  0.2254  0.4949
    1ACE    CH3    2   9.705   6.099  10.612 -0.0228 -0.7848 -0.5516
    1ACE   HH32    3   9.693   6.027  10.693 -0.2321 -0.3486 -0.1890
    1ACE   HH33    4   9.705   6.201  10.652  0.3495 -0.4649 -1.3356
    1ACE      C    5   9.825   6.074  10.523 -0.0526  0.0962 -0.4355
    1ACE      O    6   9.830   6.102  10.406  1.5527 -0.9516  0.2072
    2ALA      N    7   9.923   6.007  10.573 -0.5557  0.0667  0.2378
    2ALA      H    8   9.919   6.000  10.674  0.2665  1.7792  0.4401
    2ALA     CA    9  10.040   5.949  10.506  0.2989 -0.0799  0.0323
    2ALA     HA   10  10.054   5.995  10.408  0.7215  0.7768  0.4752
    2ALA     CB   11  10.166   5.975  10.587 -0.1480  0.2160 -0.4873
    2ALA    HB1   12  10.185   6.081  10.601  1.3543 -0.0593 -0.2008
    2ALA    HB2   13  10.153   5.925  10.683 -1.0226  0.7621 -0.3099
    2ALA    HB3   14  10.251   5.930  10.535 -0.7373 -0.8218 -0.5840
    2ALA      C   15  10.018   5.798  10.484 -0.2310  0.1314  0.0751
    2ALA      O   16  10.049   5.711  10.569  0.5736  0.6729 -0.1416
    3ALA      N   17   9.982   5.751  10.362 -0.0608  0.2608  0.0846
    3ALA      H   18   9.978   5.650  10.369 -0.5402  0.4017  2.5971
    3ALA     CA   19   9.943   5.813  10.236  0.3470 -1.0369  0.2980
    3ALA     HA   20   9.973   5.917  10.238  2.6791 -1.6121 -0.8903
    3ALA     CB   21  10.011   5.748  10.121 -0.0460  0.3744  0.3533
    3ALA    HB1   22   9.981   5.796  10.028 -2.0977  2.1692  1.8543
    3ALA    HB2   23  10.118   5.763  10.130  0.1272 -0.2214 -0.5065
    3ALA    HB3   24   9.984   5.643  10.111 -0.8209  0.7437 -1.9931
    3ALA      C   25   9.791   5.808  10.216  0.0567  0.5077 -0.2824
    3ALA      O   26   9.743   5.691  10.217 -0.0499  0.2617  0.3300
    4ALA      N   27   9.724   5.923  10.201 -0.1455 -0.5573 -0.2744
    4ALA      H   28   9.779   6.007  10.211  0.7262 -1.0611 -0.7495
    4ALA     CA   29   9.581   5.938  10.165 -0.1350 -0.3086  0.7688
    4ALA     HA   30   9.554   5.882  10.076 -1.6789 -2.0473  2.2117
    4ALA     CB   31   9.506   5.869  10.277 -0.5717 -0.2082  0.3436
    4ALA    HB1   32   9.543   5.916  10.368  1.1077  1.3599 -1.0812
    4ALA    HB2   33   9.399   5.882  10.258 -0.7997  1.0215  2.1479
    4ALA    HB3   34   9.532   5.764  10.285  0.7711  0.1977  1.9162
    4ALA      C   35   9.527   6.090  10.157 -0.9040  0.2004  0.0872
    4ALA      O   36   9.440   6.109  10.074 -0.2531 -0.1495 -1.1014
    5NME      N   37   9.567   6.176  10.249 -0.6723  0.6041  0.8616
    5NME      H   38   9.654   6.153  10.294 -0.4665 -0.5446 -0.0813
    5NME    CH3   39   9.497   6.310  10.271 -0.0873  0.0578  0.2256
    5NME   HH31   40   9.475   6.367  10.181 -0.7805 -0.6435 -0.0551
    5NME   HH32   41   9.407   6.291  10.329 -0.5888  2.7797  0.5019
    5NME   HH33   42   9.558   6.375  10.334 -0.1939  1.2503 -0.8576
  20.91516  20.91516  20.91516
