Protein
   42
    1ACE   HH31    1  11.699  13.868   8.869 -0.7587  0.3770 -0.2451
    1ACE    CH3    2  11.707  13.976   8.859 -0.7774  0.3552 -0.4970
    1ACE   HH32    3  11.663  14.007   8.765 -1.3298  2.6789  0.4736
    1ACE   HH33    4  11.806  14.021   8.873 -0.8473  0.2055  0.5991
    1ACE      C    5  11.628  14.046   8.972  0.6758 -0.0488  1.0700
    1ACE      O    6  11.530  14.109   8.946  0.2726 -0.0349  0.7540
    2ALA      N    7  11.669  14.019   9.094 -0.5920  0.5441 -0.3827
    2ALA      H    8  11.758  13.971   9.094 -0.7101  0.3217  0.2410
    2ALA     CA    9  11.620  14.091   9.215 -0.2031 -0.1071 -0.5059
    2ALA     HA   10  11.542  14.156   9.176  0.0691 -0.5833 -1.9249
    2ALA     CB   11  11.556  13.984   9.308 -0.7324 -0.3678  0.1060
    2ALA    HB1   12  11.486  13.920   9.254 -0.6272  1.1290 -1.9279
    2ALA    HB2   13  11.640  13.921   9.339 -0.7809 -2.1004 -2.8339
    2ALA    HB3   14  11.521  14.038   9.396 -1.4968 -0.2325 -0.2779
    2ALA      C   15  11.733  14.165   9.290  0.0989  0.4889  0.0343
    2ALA      O   16  11.842  14.110   9.315  0.0138 -0.1238 -0.3523
    3ALA      N   17  11.711  14.295   9.318  0.1332 -0.2389 -0.0937
    3ALA      H   18  11.791  14.337   9.363 -1.2678  1.3163  1.0757
    3ALA     CA   19  11.599  14.383   9.316 -0.7650  0.4123  0.0419
    3ALA     HA   20  11.512  14.343   9.369  0.4950 -3.1076 -0.2637
    3ALA     CB   21  11.651  14.507   9.399  0.4005  0.5349 -0.3310
    3ALA    HB1   22  11.733  14.557   9.348  1.5922 -2.2151 -1.3155
    3ALA    HB2   23  11.566  14.574   9.410 -0.1802 -0.2736  0.3666
    3ALA    HB3   24  11.691  14.468   9.493 -0.0531 -2.1038 -1.1331
    3ALA      C   25  11.553  14.421   9.173  0.4815 -0.3196 -0.5464
    3ALA      O   26  11.450  14.475   9.176  0.0235 -0.2909  0.1820
    4ALA      N   27  11.629  14.390   9.067  0.9873 -0.0011 -0.3092
    4ALA      H   28  11.708  14.332   9.092 -0.1584 -1.1747  0.6772
    4ALA     CA   29  11.629  14.431   8.930  0.1562 -0.3276  0.4390
    4ALA     HA   30  11.556  14.379   8.868  1.6872  1.1596 -2.9261
    4ALA     CB   31  11.596  14.584   8.923 -0.0811 -0.0465 -0.0721
    4ALA    HB1   32  11.498  14.604   8.967 -0.3477 -2.6329  0.6533
    4ALA    HB2   33  11.673  14.641   8.976 -0.6546  1.5675 -0.9173
    4ALA    HB3   34  11.592  14.616   8.819 -1.7123  3.1225  0.8423
    4ALA      C   35  11.773  14.407   8.868  0.3304  0.2099 -0.0397
    4ALA      O   36  11.867  14.388   8.942  0.0264 -0.1325  0.1974
    5NME      N   37  11.783  14.403   8.733 -0.1168  0.3625  0.2802
    5NME      H   38  11.700  14.410   8.675  0.4013 -1.7196 -0.7919
    5NME    CH3   39  11.915  14.371   8.656  0.5357  0.2467 -0.0341
    5NME   HH31   40  11.999  14.390   8.722  0.7902 -3.2588  0.8243
    5NME   HH32   41  11.922  14.264   8.636  1.2719  0.1449  0.7271
    5NME   HH33   42  11.915  14.427   8.562 -1.0142 -1.5324 -1.1773
  20.91516  20.91516  20.91516
