Protein
   42
    1ACE   HH31    1  13.985  10.358   7.913  1.7367 -1.3278 -0.3209
    1ACE    CH3    2  14.012  10.412   7.822  0.5337 -0.3799 -0.1439
    1ACE   HH32    3  13.975  10.511   7.850 -0.4738 -1.4957  2.8769
    1ACE   HH33    4  13.948  10.383   7.739 -3.7080 -0.0437  2.7090
    1ACE      C    5  14.158  10.406   7.787 -0.2854 -0.1125 -0.9064
    1ACE      O    6  14.199  10.324   7.705 -0.3276 -0.0361 -0.2009
    2ALA      N    7  14.241  10.487   7.853  0.3354 -0.6844  0.1257
    2ALA      H    8  14.191  10.544   7.920  0.9018 -3.4015  3.0727
    2ALA     CA    9  14.388  10.470   7.859  0.5046 -0.1047  0.3154
    2ALA     HA   10  14.401  10.388   7.789 -2.0829 -0.0251 -0.3349
    2ALA     CB   11  14.451  10.599   7.800  0.1047  0.5736 -0.0413
    2ALA    HB1   12  14.419  10.611   7.696 -1.0258  1.2988  0.3808
    2ALA    HB2   13  14.435  10.695   7.849 -1.2074  0.5093 -0.3011
    2ALA    HB3   14  14.560  10.587   7.800  0.1820  0.9267 -1.6853
    2ALA      C   15  14.433  10.447   8.010 -0.2313  0.2493  0.1615
    2ALA      O   16  14.380  10.511   8.100  0.4462 -0.1212 -0.1013
    3ALA      N   17  14.527  10.359   8.039 -0.0306 -0.3103 -0.1172
    3ALA      H   18  14.548  10.349   8.138  1.4527 -1.6565 -0.5336
    3ALA     CA   19  14.595  10.260   7.956  0.2491 -0.8362  0.1084
    3ALA     HA   20  14.589  10.306   7.857 -0.6238  0.2030  0.6134
    3ALA     CB   21  14.738  10.238   8.007 -0.5853 -0.3087 -0.4172
    3ALA    HB1   22  14.812  10.317   7.997  0.3131 -0.9081  1.2497
    3ALA    HB2   23  14.728  10.222   8.114  2.0240  1.6067  0.2176
    3ALA    HB3   24  14.775  10.149   7.958 -0.1060  1.2197 -3.0667
    3ALA      C   25  14.520  10.129   7.944  0.2001  0.1551  0.1197
    3ALA      O   26  14.485  10.068   8.045 -0.2916  0.1773 -0.8748
    4ALA      N   27  14.493  10.085   7.815 -0.2059 -0.2089  0.0077
    4ALA      H   28  14.518  10.137   7.732 -0.4126 -0.4984 -0.2383
    4ALA     CA   29  14.432   9.948   7.794 -0.1505  0.0562 -0.4145
    4ALA     HA   30  14.465   9.873   7.866 -0.1768 -1.0718 -1.5251
    4ALA     CB   31  14.280   9.937   7.793 -0.0911 -0.7241 -0.1940
    4ALA    HB1   32  14.235   9.991   7.876  1.0728 -2.2087  1.4880
    4ALA    HB2   33  14.246   9.986   7.701  0.9030 -0.4225 -0.4148
    4ALA    HB3   34  14.246   9.834   7.781 -1.0411 -0.2892 -1.6267
    4ALA      C   35  14.486   9.874   7.672  0.1900  0.1255  0.4804
    4ALA      O   36  14.527   9.945   7.578 -0.2267  0.3555 -0.9170
    5NME      N   37  14.492   9.740   7.668  0.2409  0.4561  0.1558
    5NME      H   38  14.473   9.686   7.751 -1.0006 -0.3825 -0.6496
    5NME    CH3   39  14.526   9.657   7.554 -0.6474 -0.7659  0.3027
    5NME   HH31   40  14.624   9.677   7.509 -0.2819 -1.2427  0.8655
    5NME   HH32   41  14.518   9.552   7.583  0.6937 -0.8086  0.5638
    5NME   HH33   42  14.458   9.683   7.473 -3.2314 -0.1924  2.5189
  20.91516  20.91516  20.91516
