Protein
   42
    1ACE   HH31    1   8.222   9.389  13.114  2.0986 -1.9902  0.3493
    1ACE    CH3    2   8.210   9.300  13.053 -0.2813 -1.0959 -0.6192
    1ACE   HH32    3   8.237   9.223  13.126  0.2508 -1.6537 -1.3946
    1ACE   HH33    4   8.284   9.295  12.973 -1.4615 -0.3766 -1.7866
    1ACE      C    5   8.062   9.286  13.010  0.0102 -0.1646  0.5518
    1ACE      O    6   7.975   9.295  13.096  0.3837 -0.1571  0.8290
    2ALA      N    7   8.043   9.276  12.880  0.2527 -0.1482 -0.0149
    2ALA      H    8   8.129   9.280  12.828  1.5064  0.6957  2.0035
    2ALA     CA    9   7.908   9.276  12.807 -0.4293 -0.7632 -0.4825
    2ALA     HA   10   7.941   9.269  12.703  1.2510  0.6930 -0.1008
    2ALA     CB   11   7.839   9.150  12.848  0.3449 -0.5657  0.1274
    2ALA    HB1   12   7.906   9.064  12.848 -0.3826 -1.1367  0.0645
    2ALA    HB2   13   7.807   9.166  12.951 -0.4897  1.3645 -0.3947
    2ALA    HB3   14   7.755   9.132  12.781 -1.0952  0.9472  1.4411
    2ALA      C   15   7.829   9.409  12.809  1.0129  0.1042 -0.4413
    2ALA      O   16   7.778   9.444  12.704  0.0865 -0.1501 -0.3298
    3ALA      N   17   7.803   9.462  12.929  0.7515 -0.3446  0.5320
    3ALA      H   18   7.849   9.416  13.006 -0.6645  1.1674  2.4016
    3ALA     CA   19   7.743   9.596  12.944  0.4882 -0.3932  0.6129
    3ALA     HA   20   7.676   9.604  12.858  1.5971 -1.5471 -0.4006
    3ALA     CB   21   7.658   9.594  13.078 -0.7866 -0.2084 -0.9293
    3ALA    HB1   22   7.603   9.500  13.076 -0.4123 -0.4207 -1.4374
    3ALA    HB2   23   7.732   9.596  13.158  0.0568 -0.6942 -1.6644
    3ALA    HB3   24   7.586   9.674  13.093 -1.8153 -1.1294 -0.8087
    3ALA      C   25   7.854   9.711  12.929  0.1931 -0.1974  0.0586
    3ALA      O   26   7.828   9.823  12.898  0.5527  0.3075  0.3085
    4ALA      N   27   7.984   9.678  12.952  0.5164 -0.1202 -0.7273
    4ALA      H   28   8.002   9.580  12.969 -1.4697 -0.3656  0.2570
    4ALA     CA   29   8.101   9.769  12.940  0.0135  0.9828  0.0638
    4ALA     HA   30   8.075   9.858  12.884 -0.1454  0.8104 -0.1435
    4ALA     CB   31   8.143   9.804  13.077 -0.3594  0.1261  0.0689
    4ALA    HB1   32   8.062   9.852  13.133 -1.3281  2.3803 -2.9827
    4ALA    HB2   33   8.183   9.719  13.131  1.8913  0.3022 -1.2385
    4ALA    HB3   34   8.217   9.884  13.081 -1.6871  1.3945  3.2965
    4ALA      C   35   8.206   9.688  12.861  0.0184  0.1022  0.3218
    4ALA      O   36   8.221   9.567  12.880  0.4850 -0.2084 -0.0130
    5NME      N   37   8.286   9.765  12.784 -0.9631  0.0506 -0.0052
    5NME      H   38   8.258   9.862  12.772 -0.4530  0.2805  0.6302
    5NME    CH3   39   8.388   9.710  12.696 -0.1996 -0.3037 -0.1507
    5NME   HH31   40   8.403   9.606  12.724 -0.0428 -0.4141 -0.6303
    5NME   HH32   41   8.367   9.709  12.590 -0.5128  0.5413 -0.1025
    5NME   HH33   42   8.479   9.766  12.719  0.2091 -0.3201 -1.6597
  20.91516  20.91516  20.91516
