Protein
   42
    1ACE   HH31    1   8.187   8.988  11.304  0.3964  0.4099 -1.0203
    1ACE    CH3    2   8.119   9.057  11.354  0.3060 -0.5907  0.3313
    1ACE   HH32    3   8.132   9.048  11.461 -0.4005 -0.2956  0.4479
    1ACE   HH33    4   8.016   9.041  11.322 -0.5272  1.4311  1.7838
    1ACE      C    5   8.148   9.194  11.301 -0.1089 -0.2109 -0.1353
    1ACE      O    6   8.260   9.220  11.264  0.2203  0.1992 -0.5298
    2ALA      N    7   8.054   9.285  11.289  0.3944 -0.5433 -0.0514
    2ALA      H    8   7.958   9.252  11.295  0.3429 -0.2286  1.1007
    2ALA     CA    9   8.067   9.428  11.263  0.2069  0.1989  0.7028
    2ALA     HA   10   7.969   9.465  11.293  0.5739  0.7258  1.2712
    2ALA     CB   11   8.173   9.483  11.357 -0.4950 -0.5415 -0.9061
    2ALA    HB1   12   8.272   9.474  11.313 -0.5048 -1.3488 -0.7683
    2ALA    HB2   13   8.146   9.585  11.384  1.4500  0.1517 -1.3833
    2ALA    HB3   14   8.154   9.446  11.457 -2.9440  0.5126 -0.9081
    2ALA      C   15   8.073   9.467  11.112 -0.4675 -0.2424  0.4455
    2ALA      O   16   8.103   9.579  11.079  0.4434 -0.0887  0.0637
    3ALA      N   17   8.023   9.376  11.031  0.1310  0.1347 -0.4308
    3ALA      H   18   7.996   9.287  11.070 -1.5892  0.5733 -0.5567
    3ALA     CA   19   7.982   9.399  10.888  0.1060 -0.4196 -0.1460
    3ALA     HA   20   7.984   9.506  10.868  0.5923  0.0959  2.3846
    3ALA     CB   21   8.076   9.335  10.791 -0.0752 -0.3840  0.0506
    3ALA    HB1   22   8.097   9.235  10.829  0.6212 -0.0101  0.6757
    3ALA    HB2   23   8.038   9.327  10.689  0.9283  0.0898 -0.3855
    3ALA    HB3   24   8.174   9.384  10.784  0.3560 -1.0879  0.9301
    3ALA      C   25   7.838   9.366  10.863  0.3801 -0.4043  0.3306
    3ALA      O   26   7.769   9.294  10.935 -0.6826  0.4552 -0.6104
    4ALA      N   27   7.793   9.419  10.752 -0.2079  0.8112  0.2914
    4ALA      H   28   7.859   9.483  10.711 -1.1732  1.5026 -0.2098
    4ALA     CA   29   7.670   9.394  10.684 -0.1591 -0.1982 -0.4212
    4ALA     HA   30   7.665   9.465  10.602  1.3061 -0.7071 -0.9923
    4ALA     CB   31   7.671   9.250  10.625 -0.4871 -0.8541  0.2384
    4ALA    HB1   32   7.669   9.175  10.704  0.3190 -2.7888 -1.4887
    4ALA    HB2   33   7.585   9.240  10.558  0.4151 -1.4252 -0.8679
    4ALA    HB3   34   7.760   9.228  10.567  2.1101  0.1099  3.5121
    4ALA      C   35   7.545   9.428  10.775 -0.3026  0.3596  0.8427
    4ALA      O   36   7.437   9.439  10.708 -0.1418  0.9906  0.0042
    5NME      N   37   7.553   9.455  10.907 -0.1520  0.1912 -0.5502
    5NME      H   38   7.633   9.427  10.962 -1.1205  0.0573  0.8508
    5NME    CH3   39   7.436   9.480  10.980  0.8757 -0.2583  0.2404
    5NME   HH31   40   7.395   9.386  11.018  0.8177 -1.1096 -1.7821
    5NME   HH32   41   7.456   9.539  11.069  0.4791 -1.9057  1.4685
    5NME   HH33   42   7.364   9.531  10.916  3.6300  1.4747 -1.7017
  20.91516  20.91516  20.91516
