Protein
   32
    1ACE   HH31    1   9.445  10.787  11.421  0.4152  0.7972 -0.4050
    1ACE    CH3    2   9.532  10.725  11.440 -0.1592  0.2747  0.5922
    1ACE   HH32    3   9.577  10.770  11.528 -0.3738  0.2943  0.6932
    1ACE   HH33    4   9.601  10.734  11.356 -1.3301  1.0381 -0.3089
    1ACE      C    5   9.494  10.576  11.463  0.0002  0.5021  0.1897
    1ACE      O    6   9.471  10.536  11.580 -0.2881  0.2220  0.1183
    2ALA      N    7   9.469  10.492  11.360 -0.5390  0.9140  0.3845
    2ALA      H    8   9.487  10.527  11.267 -1.6762  0.6934  0.0710
    2ALA     CA    9   9.423  10.348  11.355 -0.4446  0.1127 -0.0869
    2ALA     HA   10   9.493  10.289  11.414  0.7044  1.6892  0.1851
    2ALA     CB   11   9.295  10.334  11.430  0.1646 -0.1435  0.1011
    2ALA    HB1   12   9.220  10.410  11.409 -0.4097 -0.3093  1.4226
    2ALA    HB2   13   9.247  10.241  11.400 -0.1402 -0.0039  0.1372
    2ALA    HB3   14   9.316  10.317  11.536  0.0426 -1.6090 -0.1012
    2ALA      C   15   9.421  10.296  11.217 -0.4527  0.9408  0.8444
    2ALA      O   16   9.443  10.374  11.125  0.6741  0.0685  0.4330
    3ALA      N   17   9.403  10.163  11.210  0.0546  0.2184  0.0155
    3ALA      H   18   9.367  10.128  11.298 -2.1256 -0.6596 -1.1459
    3ALA     CA   19   9.401  10.057  11.104  0.0840 -0.1517  0.4570
    3ALA     HA   20   9.448   9.967  11.144  1.6586  1.2254  1.9282
    3ALA     CB   21   9.258  10.027  11.066 -0.3269 -0.6541 -0.2791
    3ALA    HB1   22   9.198   9.997  11.152 -0.2268 -0.2637 -0.0702
    3ALA    HB2   23   9.215  10.117  11.021 -0.3207  0.2205  1.3433
    3ALA    HB3   24   9.255   9.951  10.988 -0.9334 -0.8135 -0.1066
    3ALA      C   25   9.483  10.081  10.971  0.5821  0.3698 -0.2796
    3ALA      O   26   9.499   9.974  10.907  0.6037 -0.5494 -0.3431
    4NME      N   27   9.542  10.195  10.940  0.6614 -0.1958 -0.4049
    4NME      H   28   9.533  10.268  11.009  0.8521  0.1175 -0.7107
    4NME    CH3   29   9.617  10.236  10.818  0.4461  0.5495  0.3948
    4NME   HH31   30   9.543  10.246  10.739  0.4359 -0.4256  0.2646
    4NME   HH32   31   9.669  10.331  10.825  1.3533  0.0557  0.4538
    4NME   HH33   32   9.691  10.156  10.810 -0.6619 -0.4796  0.2050
  20.99041  20.99041  20.99041
