Protein
   32
    1ACE   HH31    1  13.334  10.478  14.818  0.0132 -0.5573 -1.2254
    1ACE    CH3    2  13.315  10.558  14.747 -0.4573 -0.1058 -0.5959
    1ACE   HH32    3  13.247  10.552  14.663 -1.1821 -1.2553  0.0653
    1ACE   HH33    4  13.414  10.583  14.708 -1.0637  3.0411 -0.4224
    1ACE      C    5  13.273  10.672  14.827 -0.5250 -0.2682  0.7464
    1ACE      O    6  13.162  10.726  14.810  0.0584  0.1698 -0.5355
    2ALA      N    7  13.367  10.730  14.909  0.0034  0.5334 -0.4128
    2ALA      H    8  13.461  10.693  14.912 -0.8364 -1.7769 -0.6775
    2ALA     CA    9  13.329  10.838  15.004 -0.0060 -0.1050  0.5101
    2ALA     HA   10  13.222  10.828  15.023  0.3170  1.5867  4.0021
    2ALA     CB   11  13.398  10.818  15.138 -0.0230  0.0213 -0.4107
    2ALA    HB1   12  13.352  10.747  15.208 -0.2433  1.6701  1.2125
    2ALA    HB2   13  13.505  10.801  15.128 -0.2723 -1.0572 -1.5024
    2ALA    HB3   14  13.385  10.904  15.204 -0.2461 -0.1106 -0.2834
    2ALA      C   15  13.346  10.975  14.933  0.1375 -0.2998 -0.1987
    2ALA      O   16  13.424  11.056  14.977 -0.0542  0.5778  0.0571
    3ALA      N   17  13.278  10.995  14.820  0.5640  0.3700  0.1121
    3ALA      H   18  13.218  10.918  14.795  2.2811 -1.2557  0.7954
    3ALA     CA   19  13.275  11.119  14.739 -0.0245  0.1076  0.7026
    3ALA     HA   20  13.201  11.100  14.662  0.8899 -0.4990 -0.0475
    3ALA     CB   21  13.218  11.239  14.823  0.1110  0.2945  0.2645
    3ALA    HB1   22  13.141  11.207  14.892 -1.5896  1.0154 -1.2005
    3ALA    HB2   23  13.303  11.282  14.877  0.2422  1.4576 -0.8060
    3ALA    HB3   24  13.175  11.312  14.754  0.0073 -0.1571 -0.1502
    3ALA      C   25  13.410  11.136  14.666 -0.9567  0.1990  0.2608
    3ALA      O   26  13.425  11.104  14.546 -0.0702  0.3649 -0.6079
    4NME      N   27  13.510  11.184  14.740 -0.5500  0.6157  0.2054
    4NME      H   28  13.501  11.179  14.840  1.8009  0.2199  0.4635
    4NME    CH3   29  13.645  11.215  14.685  0.2805 -0.0271  0.2782
    4NME   HH31   30  13.713  11.241  14.766  0.4883  0.7681 -0.1417
    4NME   HH32   31  13.689  11.137  14.623  1.2408 -0.2431  1.2103
    4NME   HH33   32  13.633  11.308  14.629  1.8945 -0.4230 -0.7917
  20.99041  20.99041  20.99041
