Protein
   32
    1ACE   HH31    1   3.596   9.545  10.665 -0.1935 -1.3989  0.0768
    1ACE    CH3    2   3.699   9.574  10.684 -0.5118  0.2143 -0.5798
    1ACE   HH32    3   3.743   9.505  10.756 -2.4114  1.6222  2.1258
    1ACE   HH33    4   3.709   9.672  10.733 -0.8088 -0.9473  1.9898
    1ACE      C    5   3.774   9.583  10.550 -0.2933  0.1162 -0.2008
    1ACE      O    6   3.721   9.642  10.463 -0.2617 -0.2062  0.1621
    2ALA      N    7   3.901   9.535  10.547  0.6132  0.0362 -0.4065
    2ALA      H    8   3.931   9.483  10.628 -1.2189 -0.7252 -0.1514
    2ALA     CA    9   4.013   9.575  10.468 -0.3324  0.0398  0.5062
    2ALA     HA   10   4.043   9.670  10.512 -0.9884  1.1849 -1.3592
    2ALA     CB   11   4.130   9.472  10.486  0.7831  0.1317  0.7103
    2ALA    HB1   12   4.131   9.386  10.419  3.4928  0.4883  0.1653
    2ALA    HB2   13   4.219   9.526  10.452 -0.9445  2.1891 -0.8013
    2ALA    HB3   14   4.143   9.442  10.590  0.3333 -1.0411  0.4403
    2ALA      C   15   3.986   9.617  10.319 -0.1055 -0.4542  0.2990
    2ALA      O   16   4.038   9.712  10.263  0.2239  0.1109 -0.0141
    3ALA      N   17   3.900   9.539  10.250  0.4950  0.2105  0.2807
    3ALA      H   18   3.869   9.451  10.288  1.3729  0.1776  0.9562
    3ALA     CA   19   3.851   9.566  10.111 -0.1058  0.4993  0.0598
    3ALA     HA   20   3.930   9.550  10.038 -0.5618 -0.2413 -0.2776
    3ALA     CB   21   3.752   9.452  10.069 -0.3531 -0.7016  0.8853
    3ALA    HB1   22   3.713   9.473   9.969  0.9568  1.5555  0.7869
    3ALA    HB2   23   3.815   9.365  10.053  0.3339  0.3006 -2.8409
    3ALA    HB3   24   3.672   9.441  10.142 -2.0645 -0.2528 -0.8025
    3ALA      C   25   3.792   9.710  10.095 -0.5518 -0.4265  0.0799
    3ALA      O   26   3.803   9.761   9.983  0.4340 -0.0670  0.2518
    4NME      N   27   3.735   9.766  10.196 -0.4835 -0.2080 -1.2036
    4NME      H   28   3.731   9.712  10.281  0.2424 -0.6303 -1.4360
    4NME    CH3   29   3.708   9.907  10.209  0.2314 -0.0673 -1.0964
    4NME   HH31   30   3.654   9.920  10.303 -0.8531 -1.2930 -1.5097
    4NME   HH32   31   3.796   9.972  10.205  0.7094 -0.7257 -1.6082
    4NME   HH33   32   3.642   9.942  10.129 -0.1949  0.9668 -0.3121
  20.99041  20.99041  20.99041
