Protein
   42
    1ACE   HH31    1  15.380   7.718  12.848 -0.3924  0.7453  2.6317
    1ACE    CH3    2  15.476   7.769  12.846 -0.1448  0.2755  0.0327
    1ACE   HH32    3  15.470   7.859  12.785  4.0352 -0.8028 -2.4032
    1ACE   HH33    4  15.545   7.701  12.796  1.4658  1.2376  0.8882
    1ACE      C    5  15.522   7.801  12.986 -0.2815  0.0193 -0.2137
    1ACE      O    6  15.560   7.913  13.020  0.0923 -0.6184  0.1386
    2ALA      N    7  15.528   7.698  13.068  0.0962  0.4863 -0.5567
    2ALA      H    8  15.496   7.610  13.031 -0.8230  0.8017 -0.5274
    2ALA     CA    9  15.578   7.706  13.207  0.1050  0.2633 -0.0420
    2ALA     HA   10  15.562   7.805  13.250  1.9834  0.0129  1.3490
    2ALA     CB   11  15.486   7.604  13.286  0.3870 -0.6578 -0.0947
    2ALA    HB1   12  15.500   7.502  13.250  0.4809 -1.1233  1.1768
    2ALA    HB2   13  15.513   7.608  13.392 -2.7395  1.6982  0.7525
    2ALA    HB3   14  15.378   7.623  13.286  0.5331  0.1987  0.1452
    2ALA      C   15  15.730   7.682  13.221 -0.5463 -0.4676  0.4138
    2ALA      O   16  15.771   7.567  13.226 -0.4653 -0.4085 -0.3916
    3ALA      N   17  15.800   7.794  13.246  0.0620  0.0324  0.1853
    3ALA      H   18  15.747   7.880  13.247 -0.8955 -0.5489  0.5810
    3ALA     CA   19  15.937   7.822  13.289 -0.3797  0.3652  0.5845
    3ALA     HA   20  15.974   7.879  13.203 -0.5631  3.0327  2.1714
    3ALA     CB   21  15.926   7.925  13.407  0.4765  0.1504  0.2077
    3ALA    HB1   22  15.902   7.870  13.498 -0.2953  1.4018  0.7999
    3ALA    HB2   23  16.022   7.974  13.418  1.0531 -0.6471 -1.1364
    3ALA    HB3   24  15.848   8.000  13.392  0.2003  0.0595  1.1468
    3ALA      C   25  16.049   7.715  13.314  0.2352  0.7138 -0.3478
    3ALA      O   26  16.134   7.746  13.393  0.0237  0.0919 -0.2698
    4ALA      N   27  16.036   7.592  13.255 -0.4090  0.6462 -0.2655
    4ALA      H   28  15.952   7.581  13.200  0.0911  3.2407 -1.6779
    4ALA     CA   29  16.100   7.458  13.291 -0.1702 -0.3317 -0.3647
    4ALA     HA   30  16.065   7.382  13.220 -1.9911 -0.5756  0.7249
    4ALA     CB   31  16.244   7.455  13.256 -0.7040  0.2786 -0.2291
    4ALA    HB1   32  16.288   7.355  13.264  0.4136  0.8862  2.2746
    4ALA    HB2   33  16.253   7.488  13.153  0.7425  1.1620  0.1426
    4ALA    HB3   34  16.310   7.516  13.317  2.8464 -2.2439 -1.2598
    4ALA      C   35  16.065   7.413  13.437  1.1194  0.6271 -0.4009
    4ALA      O   36  16.114   7.315  13.483 -0.2324 -0.4932 -0.3324
    5NME      N   37  15.972   7.478  13.505 -0.2245  0.0577  0.6010
    5NME      H   38  15.939   7.560  13.457  0.3213 -0.7767 -1.3172
    5NME    CH3   39  15.936   7.452  13.645  0.1432  0.8915  0.3527
    5NME   HH31   40  15.864   7.529  13.672 -1.5713 -0.3636 -0.4059
    5NME   HH32   41  15.899   7.349  13.647  0.0300  0.6538 -4.1068
    5NME   HH33   42  16.024   7.451  13.710 -0.8051  0.9706  1.6630
  20.91516  20.91516  20.91516
