Protein
   42
    1ACE   HH31    1   5.770  11.793  12.587  0.3930 -0.1704 -0.4836
    1ACE    CH3    2   5.806  11.743  12.496  0.1858 -0.5554 -0.3618
    1ACE   HH32    3   5.734  11.668  12.461  1.9728 -2.7867  0.5540
    1ACE   HH33    4   5.896  11.689  12.525  0.2675 -1.0178 -1.4432
    1ACE      C    5   5.824  11.845  12.385 -0.1406 -0.2014 -0.4563
    1ACE      O    6   5.936  11.895  12.362 -0.4892 -0.0583 -0.2706
    2ALA      N    7   5.713  11.881  12.313 -0.0434 -0.5584 -0.0873
    2ALA      H    8   5.623  11.839  12.328 -0.0010 -0.2516  1.1593
    2ALA     CA    9   5.711  11.989  12.212  0.2726 -0.5863  0.0687
    2ALA     HA   10   5.620  11.969  12.157 -0.1435 -0.2068  0.6079
    2ALA     CB   11   5.701  12.123  12.291  0.7985 -0.2912  0.2064
    2ALA    HB1   12   5.787  12.133  12.358  2.1049  0.2982 -1.4737
    2ALA    HB2   13   5.698  12.212  12.228  0.5022 -0.6156 -0.2415
    2ALA    HB3   14   5.609  12.121  12.349 -0.9889  0.0048 -2.4732
    2ALA      C   15   5.825  11.987  12.106 -0.4184  0.1244 -0.7443
    2ALA      O   16   5.819  11.918  12.009  0.2043 -0.1720 -0.1543
    3ALA      N   17   5.920  12.082  12.117 -0.5789  0.4715 -0.1039
    3ALA      H   18   5.934  12.131  12.205  0.4933 -0.7438  0.4409
    3ALA     CA   19   6.043  12.086  12.030  0.0705  0.5292  0.6666
    3ALA     HA   20   6.119  12.139  12.087  1.4548  0.4975 -1.0761
    3ALA     CB   21   6.108  11.946  12.006  0.2190 -0.6278 -0.4366
    3ALA    HB1   22   6.047  11.886  11.939 -1.0049 -0.7916  0.7772
    3ALA    HB2   23   6.211  11.970  11.978  0.2110  0.4531  0.4065
    3ALA    HB3   24   6.104  11.892  12.101 -0.2662 -2.5188 -1.4616
    3ALA      C   25   6.028  12.176  11.908 -0.0399  0.6130  0.0937
    3ALA      O   26   6.090  12.280  11.886  0.3768  0.3785 -0.2293
    4ALA      N   27   5.939  12.131  11.817  0.1162  0.2269 -0.2498
    4ALA      H   28   5.901  12.039  11.837 -1.1422  0.2893 -2.0673
    4ALA     CA   29   5.913  12.204  11.691 -0.9817  0.1572 -0.2198
    4ALA     HA   30   5.964  12.300  11.696 -1.4375  0.4014 -0.2194
    4ALA     CB   31   5.978  12.119  11.573 -0.0110 -0.1093 -0.0786
    4ALA    HB1   32   6.081  12.097  11.601  0.7363  1.1383 -1.7241
    4ALA    HB2   33   5.919  12.027  11.566  0.2074 -0.3255  0.8479
    4ALA    HB3   34   5.975  12.176  11.480 -0.5935  0.0119  0.0097
    4ALA      C   35   5.767  12.241  11.664  0.4159 -0.2397 -0.0786
    4ALA      O   36   5.749  12.317  11.569 -0.1629  0.5652  0.0314
    5NME      N   37   5.670  12.201  11.756 -0.3273 -0.6419  0.1967
    5NME      H   38   5.678  12.144  11.839 -4.0600 -1.5804  0.1222
    5NME    CH3   39   5.532  12.247  11.752  0.3324 -0.0142 -0.2202
    5NME   HH31   40   5.476  12.217  11.841 -0.8909  2.6717 -0.0253
    5NME   HH32   41   5.531  12.354  11.736 -1.4159  0.2645  1.3342
    5NME   HH33   42   5.482  12.194  11.671 -1.1334 -1.1335  1.3418
  20.91516  20.91516  20.91516
