Protein
   42
    1ACE   HH31    1  12.676   1.585  16.012  0.9181 -0.0257 -0.0865
    1ACE    CH3    2  12.731   1.666  15.965  0.2915 -0.1453 -1.0515
    1ACE   HH32    3  12.734   1.744  16.040 -4.3735 -0.6237 -0.0645
    1ACE   HH33    4  12.687   1.696  15.870  3.3174  1.5490 -2.0635
    1ACE      C    5  12.871   1.624  15.929 -0.0415  1.0519  0.4128
    1ACE      O    6  12.967   1.647  16.001 -0.0457  0.5144 -0.2673
    2ALA      N    7  12.878   1.563  15.810 -0.2967  0.1927  0.2565
    2ALA      H    8  12.804   1.549  15.743  0.5662 -0.2614 -0.6288
    2ALA     CA    9  13.007   1.543  15.738 -0.2288  0.3457  0.6109
    2ALA     HA   10  13.082   1.602  15.789 -0.8494  1.6067  0.1028
    2ALA     CB   11  13.042   1.398  15.770  0.1231 -0.0990  0.0959
    2ALA    HB1   12  13.052   1.391  15.878 -0.8267 -1.2913  0.1224
    2ALA    HB2   13  12.962   1.335  15.731 -0.2256  0.6078 -0.3654
    2ALA    HB3   14  13.137   1.376  15.721 -1.4240  1.0378 -3.7121
    2ALA      C   15  13.003   1.583  15.593 -0.2360  0.1104  0.1212
    2ALA      O   16  12.929   1.521  15.519  0.1901 -0.2241 -0.2603
    3ALA      N   17  13.080   1.681  15.543  0.2099  0.4713 -0.4426
    3ALA      H   18  13.061   1.700  15.446  0.7088  0.9413 -0.4563
    3ALA     CA   19  13.189   1.767  15.602 -0.4588  0.5363 -0.3769
    3ALA     HA   20  13.218   1.833  15.521 -2.1378  3.5242  1.2718
    3ALA     CB   21  13.137   1.859  15.717  0.0501  0.0681  0.0600
    3ALA    HB1   22  13.077   1.808  15.792 -1.0466 -0.2990 -1.0275
    3ALA    HB2   23  13.222   1.914  15.757 -0.9616  2.6518 -1.1326
    3ALA    HB3   24  13.070   1.927  15.664  1.5417  1.0113 -0.6795
    3ALA      C   25  13.305   1.683  15.657 -0.5952  0.8131 -0.5220
    3ALA      O   26  13.395   1.733  15.719 -0.3424 -0.5153  0.0498
    4ALA      N   27  13.318   1.555  15.611  0.1610  0.2544 -0.3153
    4ALA      H   28  13.242   1.516  15.558  1.4763  0.1842 -2.2511
    4ALA     CA   29  13.447   1.491  15.602  0.5194  0.9832  0.1703
    4ALA     HA   30  13.488   1.463  15.699 -0.0618  0.8854  0.3937
    4ALA     CB   31  13.427   1.357  15.528  0.0837 -0.5812  0.2224
    4ALA    HB1   32  13.383   1.372  15.429 -0.1061 -0.1181  0.3759
    4ALA    HB2   33  13.519   1.298  15.529  1.0352  0.7340 -1.6677
    4ALA    HB3   34  13.359   1.302  15.592 -0.8056  1.1709  0.8320
    4ALA      C   35  13.552   1.581  15.527 -0.9176 -0.2637 -0.7234
    4ALA      O   36  13.522   1.668  15.442 -0.3935  0.1246  0.2970
    5NME      N   37  13.678   1.556  15.572 -0.0985  0.0588  0.4034
    5NME      H   38  13.704   1.478  15.631 -0.6004 -0.7212 -0.3644
    5NME    CH3   39  13.791   1.639  15.531 -0.0492 -0.1374 -0.1036
    5NME   HH31   40  13.784   1.670  15.426  0.9760 -0.3986 -0.2490
    5NME   HH32   41  13.777   1.733  15.586 -2.2796  0.0970 -0.9333
    5NME   HH33   42  13.888   1.597  15.558  0.6473  1.7925  0.5883
  20.91516  20.91516  20.91516
