Protein
   42
    1ACE   HH31    1   7.022  13.671   7.157  0.7640  0.7261  0.1081
    1ACE    CH3    2   6.972  13.758   7.199 -0.1900  0.2621 -0.0390
    1ACE   HH32    3   7.011  13.799   7.293 -1.0204  0.7013  0.1292
    1ACE   HH33    4   6.868  13.726   7.209  0.6214 -2.7074 -0.2643
    1ACE      C    5   6.989  13.868   7.096 -0.0809  0.0626 -0.1950
    1ACE      O    6   6.903  13.883   7.010  0.4640  0.2931  0.3001
    2ALA      N    7   7.092  13.948   7.092  0.6977 -0.1335  0.9103
    2ALA      H    8   7.156  13.941   7.170 -0.0870  2.1270  1.8345
    2ALA     CA    9   7.094  14.077   7.017  0.0563  0.2758  0.6545
    2ALA     HA   10   6.999  14.127   7.033 -0.5809 -0.1518 -1.5207
    2ALA     CB   11   7.206  14.173   7.074  0.6205 -0.4065  0.0200
    2ALA    HB1   12   7.291  14.105   7.073  0.4600 -0.6968  2.1843
    2ALA    HB2   13   7.215  14.265   7.017 -0.8735  0.5418  1.2431
    2ALA    HB3   14   7.169  14.193   7.175 -1.7411 -3.4008 -0.1026
    2ALA      C   15   7.120  14.058   6.865  0.0027  0.3312  0.1655
    2ALA      O   16   7.189  13.963   6.830  0.7297  0.1966 -0.5085
    3ALA      N   17   7.072  14.144   6.774  0.5394  0.0703 -0.6057
    3ALA      H   18   7.091  14.124   6.676  2.4650  1.2826 -0.5513
    3ALA     CA   19   6.985  14.263   6.809 -0.1004 -0.0131  0.5230
    3ALA     HA   20   7.026  14.310   6.898  0.2979 -0.8564  0.8071
    3ALA     CB   21   6.995  14.369   6.699 -0.2260 -0.2814 -0.1504
    3ALA    HB1   22   6.934  14.341   6.614  0.7737  0.6336 -1.2072
    3ALA    HB2   23   6.953  14.455   6.751  1.3187  0.0185  0.6880
    3ALA    HB3   24   7.096  14.384   6.661 -0.1504  1.6208  0.6758
    3ALA      C   25   6.835  14.214   6.835  0.5930  0.3473 -0.3415
    3ALA      O   26   6.748  14.295   6.869 -0.0028  0.6002  0.3247
    4ALA      N   27   6.805  14.085   6.810 -0.2396 -0.2010 -0.3718
    4ALA      H   28   6.883  14.025   6.788  2.4615  2.7932  0.3246
    4ALA     CA   29   6.678  14.013   6.799 -0.0439  0.0184 -0.0371
    4ALA     HA   30   6.636  14.000   6.899  1.1770 -2.4773  0.2333
    4ALA     CB   31   6.580  14.080   6.704  0.9449  0.3073 -0.0199
    4ALA    HB1   32   6.619  14.091   6.603  0.4293  0.1576 -0.2362
    4ALA    HB2   33   6.492  14.017   6.692  1.4597 -0.3980 -0.1647
    4ALA    HB3   34   6.542  14.174   6.744 -0.5420 -0.1474 -0.2834
    4ALA      C   35   6.719  13.879   6.738 -0.3046  0.3960  0.0251
    4ALA      O   36   6.814  13.871   6.662  0.2758 -0.0984  0.5965
    5NME      N   37   6.643  13.778   6.775  0.1946 -0.2851  0.2545
    5NME      H   38   6.552  13.792   6.817 -0.0009 -2.5464  0.7161
    5NME    CH3   39   6.668  13.639   6.722 -0.3667  0.0636 -1.0846
    5NME   HH31   40   6.596  13.561   6.750  0.9236 -0.5934  0.5548
    5NME   HH32   41   6.641  13.649   6.617 -1.0847  2.2833 -0.7323
    5NME   HH33   42   6.772  13.616   6.743 -0.6416  0.4470  0.8452
  20.91516  20.91516  20.91516
