Protein
   42
    1ACE   HH31    1  10.987  11.317  11.329  1.5584 -0.7447  0.8129
    1ACE    CH3    2  10.930  11.406  11.354  0.7009 -1.0464  0.0151
    1ACE   HH32    3  10.831  11.375  11.385  0.7698 -2.2133 -0.8665
    1ACE   HH33    4  10.926  11.475  11.269 -1.0881  0.1782  1.0239
    1ACE      C    5  11.004  11.475  11.465  0.6716 -0.5928 -0.0815
    1ACE      O    6  10.941  11.517  11.563  0.3163  0.0862 -0.5166
    2ALA      N    7  11.137  11.506  11.446  0.6605 -0.8321 -0.4624
    2ALA      H    8  11.183  11.493  11.357  2.1172  0.7103 -0.0046
    2ALA     CA    9  11.214  11.584  11.545  0.1043 -0.5633  0.1763
    2ALA     HA   10  11.306  11.615  11.495 -1.1909 -0.2109 -2.1384
    2ALA     CB   11  11.147  11.720  11.580 -0.1423  0.3404  0.5074
    2ALA    HB1   12  11.054  11.719  11.637 -0.9795  1.1436 -0.7933
    2ALA    HB2   13  11.224  11.778  11.630 -0.7181  1.0706  0.5548
    2ALA    HB3   14  11.126  11.764  11.483  1.4878 -0.0321 -0.0425
    2ALA      C   15  11.259  11.507  11.670 -0.1975 -0.0893  0.1314
    2ALA      O   16  11.375  11.522  11.710  0.0386 -0.2294 -0.3380
    3ALA      N   17  11.169  11.430  11.732  0.0333 -0.4805 -0.5827
    3ALA      H   18  11.078  11.432  11.687 -1.1463 -1.9892  1.6090
    3ALA     CA   19  11.195  11.325  11.834  0.2169  0.5985 -0.4214
    3ALA     HA   20  11.191  11.380  11.928 -0.3260  0.0400 -0.1107
    3ALA     CB   21  11.081  11.223  11.845 -0.1901  0.3113  0.0530
    3ALA    HB1   22  11.076  11.160  11.756  1.0582  2.2705 -1.4696
    3ALA    HB2   23  11.109  11.156  11.927  0.4937 -1.6480 -1.7071
    3ALA    HB3   24  10.994  11.285  11.866  1.6989  3.6079 -1.2663
    3ALA      C   25  11.332  11.253  11.804  0.3042  0.4431  0.4116
    3ALA      O   26  11.344  11.177  11.706 -0.0782 -0.0854 -0.5580
    4ALA      N   27  11.418  11.288  11.898  0.5198  0.3045 -0.5659
    4ALA      H   28  11.381  11.336  11.979 -1.2446  2.1834 -2.3920
    4ALA     CA   29  11.566  11.261  11.901  0.2793 -0.1335 -0.4342
    4ALA     HA   30  11.613  11.345  11.952  0.3757 -0.8772  0.7503
    4ALA     CB   31  11.600  11.153  12.009  0.3512 -0.2725 -0.2098
    4ALA    HB1   32  11.546  11.170  12.102  0.0177 -1.0556 -0.2456
    4ALA    HB2   33  11.575  11.054  11.971  2.5574 -0.9726  0.0065
    4ALA    HB3   34  11.708  11.150  12.021  0.3732  0.6621 -0.1594
    4ALA      C   35  11.636  11.244  11.759  0.5175  0.1672 -0.2627
    4ALA      O   36  11.697  11.146  11.737 -0.4273 -0.1492 -0.2732
    5NME      N   37  11.623  11.337  11.665 -0.2140  0.5681 -0.4540
    5NME      H   38  11.560  11.412  11.689 -2.2645 -1.6416  1.6504
    5NME    CH3   39  11.708  11.345  11.554 -0.2949 -0.1309  0.1809
    5NME   HH31   40  11.709  11.450  11.525  1.6243 -0.0174  0.5215
    5NME   HH32   41  11.811  11.311  11.560  0.4113  1.4536 -1.8702
    5NME   HH33   42  11.655  11.294  11.472 -0.0186  0.0206 -0.0935
  20.91516  20.91516  20.91516
