Protein
   42
    1ACE   HH31    1  14.492   0.213  13.193 -0.9777  0.1407  1.1179
    1ACE    CH3    2  14.542   0.301  13.233 -0.5833  0.2220  0.4571
    1ACE   HH32    3  14.525   0.384  13.165 -0.4257  1.8110  2.2808
    1ACE   HH33    4  14.648   0.278  13.248 -0.6263 -1.5989 -1.5548
    1ACE      C    5  14.470   0.325  13.364  0.2442  0.1866 -0.0135
    1ACE      O    6  14.350   0.324  13.374  0.1589  0.2738 -0.3451
    2ALA      N    7  14.550   0.345  13.467 -0.4868 -0.5881 -0.6561
    2ALA      H    8  14.641   0.368  13.430 -0.3592 -2.1768 -1.3903
    2ALA     CA    9  14.529   0.338  13.613 -0.1093 -0.1262 -0.0175
    2ALA     HA   10  14.598   0.265  13.656 -0.7506  0.0547  1.3608
    2ALA     CB   11  14.565   0.474  13.675  0.0887  0.1087  0.4272
    2ALA    HB1   12  14.539   0.490  13.780  1.7283 -0.4199  0.9511
    2ALA    HB2   13  14.672   0.491  13.669  0.7316 -2.3040  2.9047
    2ALA    HB3   14  14.520   0.557  13.622  2.5862 -0.6343 -3.2760
    2ALA      C   15  14.390   0.280  13.656 -0.1107 -0.1808 -0.1396
    2ALA      O   16  14.296   0.355  13.695  0.0835 -0.4070  0.0892
    3ALA      N   17  14.367   0.147  13.638 -0.0462  0.2856 -0.1323
    3ALA      H   18  14.273   0.117  13.659  0.6384 -2.4241 -0.6059
    3ALA     CA   19  14.464   0.046  13.590 -0.2616 -0.0954 -0.6184
    3ALA     HA   20  14.550   0.098  13.546 -3.0210  2.8211 -3.0889
    3ALA     CB   21  14.528  -0.019  13.715 -0.6968  0.5462 -0.4944
    3ALA    HB1   22  14.556   0.059  13.786 -0.4776  0.0902 -0.0645
    3ALA    HB2   23  14.444  -0.072  13.760 -1.6536  1.9279 -0.6315
    3ALA    HB3   24  14.614  -0.083  13.692  0.1517  1.8712 -1.1267
    3ALA      C   25  14.408  -0.055  13.497 -0.0351 -0.4070  0.5060
    3ALA      O   26  14.465  -0.165  13.478 -0.0955 -0.6181  0.5959
    4ALA      N   27  14.301  -0.017  13.427  0.0386  0.4633  0.3935
    4ALA      H   28  14.263   0.076  13.440 -0.7176  0.3997 -1.1343
    4ALA     CA   29  14.230  -0.118  13.348 -0.0102  0.2324  0.2475
    4ALA     HA   30  14.252  -0.216  13.392 -0.3157  0.6816  1.4373
    4ALA     CB   31  14.082  -0.105  13.380 -0.2889 -0.0137  0.0783
    4ALA    HB1   32  14.041  -0.012  13.341 -0.0893 -0.6455 -1.7715
    4ALA    HB2   33  14.022  -0.180  13.330 -1.9723  1.7735 -0.7063
    4ALA    HB3   34  14.064  -0.113  13.487 -0.9799 -0.4004 -0.0600
    4ALA      C   35  14.279  -0.115  13.202 -0.3860  0.1716  0.1810
    4ALA      O   36  14.320  -0.009  13.146  0.6691  0.2743 -0.3815
    5NME      N   37  14.279  -0.233  13.139 -0.1241  0.7049 -0.3318
    5NME      H   38  14.271  -0.313  13.200  0.6131  0.8635 -0.0137
    5NME    CH3   39  14.292  -0.255  12.997  1.1842 -0.3422 -0.1784
    5NME   HH31   40  14.199  -0.297  12.960  0.6687  0.4627  0.1691
    5NME   HH32   41  14.309  -0.160  12.945 -3.3091  0.6815 -0.2259
    5NME   HH33   42  14.379  -0.318  12.982  1.1192 -0.7916  1.2479
  20.91516  20.91516  20.91516
