Protein
   32
    1ACE   HH31    1  10.333  16.542  11.386 -0.2734  0.2775 -1.0051
    1ACE    CH3    2  10.239  16.534  11.442  0.1187  0.2964 -0.3280
    1ACE   HH32    3  10.236  16.443  11.501  1.1864 -0.2599 -1.0832
    1ACE   HH33    4  10.150  16.533  11.379 -1.4267 -1.9755  1.7220
    1ACE      C    5  10.225  16.643  11.540 -0.0098 -0.1182 -0.9239
    1ACE      O    6  10.159  16.631  11.646  0.5559 -0.3239 -0.1463
    2ALA      N    7  10.290  16.754  11.500  0.1254  0.5567  0.0117
    2ALA      H    8  10.349  16.735  11.420  0.9737 -0.0787  0.7626
    2ALA     CA    9  10.266  16.893  11.530 -0.0135  0.8177  0.8156
    2ALA     HA   10  10.308  16.914  11.628 -0.5267  4.3865  0.3755
    2ALA     CB   11  10.333  16.973  11.422 -0.0556  0.3055  0.0080
    2ALA    HB1   12  10.295  17.075  11.420 -1.0679 -0.0728 -1.1504
    2ALA    HB2   13  10.439  16.973  11.447 -0.0245 -1.7012 -0.0362
    2ALA    HB3   14  10.307  16.929  11.326 -2.4740  0.8350  0.3451
    2ALA      C   15  10.117  16.929  11.547  0.6413  0.2131 -1.1819
    2ALA      O   16  10.054  16.976  11.451  0.5044 -0.3572 -0.0106
    3ALA      N   17  10.052  16.896  11.663 -0.0507 -0.0771 -0.1769
    3ALA      H   18  10.109  16.846  11.729  1.1189  0.3344 -0.8512
    3ALA     CA   19   9.909  16.914  11.697 -0.3344  0.4449  0.1546
    3ALA     HA   20   9.849  16.854  11.627 -0.0098 -0.3379  0.5425
    3ALA     CB   21   9.886  16.860  11.841  0.1845  0.7791 -0.3241
    3ALA    HB1   22   9.874  16.752  11.848  2.7797  0.4695  0.6064
    3ALA    HB2   23   9.955  16.906  11.912  0.6433 -0.2429 -0.0933
    3ALA    HB3   24   9.786  16.896  11.868 -0.1172 -1.1199  1.2561
    3ALA      C   25   9.867  17.058  11.684 -0.0500 -0.3724 -0.1403
    3ALA      O   26   9.891  17.136  11.777  0.0677 -0.0856 -0.9321
    4NME      N   27   9.780  17.090  11.588  0.2523  0.3769  0.1064
    4NME      H   28   9.779  17.020  11.515  2.9288 -2.2530  2.2699
    4NME    CH3   29   9.685  17.198  11.594  0.0002 -0.5272  0.3888
    4NME   HH31   30   9.606  17.181  11.521 -0.4742 -0.3754  0.8610
    4NME   HH32   31   9.636  17.193  11.692 -1.5130 -0.5112 -0.3379
    4NME   HH33   32   9.728  17.296  11.576 -1.1653 -0.3087 -1.3525
  20.99041  20.99041  20.99041
