<<<<<<< HEAD
Protein
   42
    1ACE   HH31    1  17.161   9.772   8.293  2.4403  1.0338 -0.4706
    1ACE    CH3    2  17.165   9.695   8.216 -0.6354  0.2415  0.0003
    1ACE   HH32    3  17.225   9.731   8.133  0.2916 -0.0980  0.5145
    1ACE   HH33    4  17.065   9.663   8.186 -0.2567 -1.5394  0.4888
    1ACE      C    5  17.234   9.574   8.279  1.0152 -0.4292 -1.0800
    1ACE      O    6  17.314   9.502   8.225 -0.7359 -0.4766 -0.0278
    2ALA      N    7  17.215   9.566   8.414 -0.1927  0.2569 -0.0310
    2ALA      H    8  17.155   9.630   8.463 -1.3442 -0.6740 -0.1896
    2ALA     CA    9  17.291   9.479   8.506  0.0278 -0.3755 -0.1122
    2ALA     HA   10  17.396   9.477   8.475 -0.2947 -0.0206 -1.2506
    2ALA     CB   11  17.292   9.532   8.654 -0.2362 -0.2398  1.1689
    2ALA    HB1   12  17.346   9.463   8.719 -0.6304 -0.6070  1.1170
    2ALA    HB2   13  17.339   9.630   8.656  0.2832 -0.3286 -2.0132
    2ALA    HB3   14  17.188   9.542   8.685 -0.2326  0.9195  0.8394
    2ALA      C   15  17.238   9.332   8.508  0.2612 -0.5203 -0.0923
    2ALA      O   16  17.157   9.299   8.596 -0.5606 -0.2339 -0.1450
    3ALA      N   17  17.265   9.256   8.405 -0.3338  0.2292 -0.0496
    3ALA      H   18  17.342   9.280   8.345  0.4562  0.4859  1.0354
    3ALA     CA   19  17.183   9.148   8.344  0.1186 -0.8868 -0.0224
    3ALA     HA   20  17.191   9.164   8.236  0.4632  1.0893  0.2586
    3ALA     CB   21  17.256   9.016   8.379  0.4442  0.0989  0.4587
    3ALA    HB1   22  17.219   8.926   8.330  1.5076  0.2536 -0.6829
    3ALA    HB2   23  17.361   9.021   8.351  1.0840 -3.3599  1.8063
    3ALA    HB3   24  17.257   8.996   8.486  0.3878  0.2146  0.4828
    3ALA      C   25  17.029   9.150   8.376 -0.1712 -0.2509 -0.4080
    3ALA      O   26  16.973   9.045   8.408 -0.5685  0.9670 -0.0450
    4ALA      N   27  16.972   9.268   8.352  0.4338  0.2761 -0.2737
    4ALA      H   28  17.024   9.350   8.321  2.4522 -0.4711  0.9144
    4ALA     CA   29  16.837   9.309   8.397 -0.1281 -0.5489  0.9033
    4ALA     HA   30  16.753   9.247   8.365 -1.1943  0.5776  1.4146
    4ALA     CB   31  16.844   9.297   8.551  0.1385 -0.3398 -0.1320
    4ALA    HB1   32  16.741   9.293   8.586  0.4878  2.1088  1.3831
    4ALA    HB2   33  16.881   9.198   8.578  0.0827  0.0705  1.5610
    4ALA    HB3   34  16.904   9.373   8.601  1.5526 -0.5636 -1.4507
    4ALA      C   35  16.803   9.461   8.355 -0.2136 -0.3709  0.0807
    4ALA      O   36  16.890   9.541   8.330 -0.6532  0.3519 -0.6246
    5NME      N   37  16.675   9.501   8.353  0.2518  0.1031  0.2052
    5NME      H   38  16.603   9.432   8.365  0.9682 -0.3451  2.4815
    5NME    CH3   39  16.629   9.639   8.308  0.3703 -0.0428 -0.4700
    5NME   HH31   40  16.575   9.688   8.390 -0.5839 -3.4368  1.1068
    5NME   HH32   41  16.711   9.704   8.278 -0.1391  1.0997  0.4808
    5NME   HH33   42  16.562   9.631   8.223 -0.5412  1.7337  0.0395
  20.91516  20.91516  20.91516
=======
Protein
   42
    1ACE   HH31    1  14.549  12.828   9.244 -2.7842  1.0994 -1.6723
    1ACE    CH3    2  14.570  12.915   9.306 -0.2884 -0.3097 -0.3782
    1ACE   HH32    3  14.660  12.886   9.361 -0.6931 -3.0209 -1.0133
    1ACE   HH33    4  14.491  12.941   9.376  1.0987 -0.3735  1.2689
    1ACE      C    5  14.589  13.025   9.211  0.2395 -0.5333  1.1521
    1ACE      O    6  14.537  13.131   9.238 -0.2362  0.2877  0.1163
    2ALA      N    7  14.656  13.004   9.092 -0.4797  0.2085 -0.0320
    2ALA      H    8  14.701  12.916   9.072 -1.4497 -0.6510  1.3108
    2ALA     CA    9  14.670  13.114   8.993  0.5970 -0.0727 -0.4198
    2ALA     HA   10  14.747  13.085   8.921  1.3862 -0.2245  0.4713
    2ALA     CB   11  14.537  13.127   8.927 -0.1730 -1.1408  0.2366
    2ALA    HB1   12  14.494  13.028   8.915  0.1367 -1.2525 -0.0148
    2ALA    HB2   13  14.467  13.187   8.985  1.7733 -0.0087  1.5249
    2ALA    HB3   14  14.554  13.174   8.830  0.1399 -0.0002  0.8176
    2ALA      C   15  14.727  13.246   9.047  0.7547 -0.0852 -0.0566
    2ALA      O   16  14.835  13.249   9.104 -0.1282  0.2092  0.2256
    3ALA      N   17  14.646  13.354   9.036 -0.1947  0.2259  0.2367
    3ALA      H   18  14.576  13.337   8.965  1.5617 -0.6473 -1.3450
    3ALA     CA   19  14.636  13.478   9.113 -0.0670  0.7043  0.0292
    3ALA     HA   20  14.682  13.552   9.046  0.0335  1.8092  1.2704
    3ALA     CB   21  14.489  13.513   9.127 -0.2432 -0.0826 -0.7079
    3ALA    HB1   22  14.453  13.533   9.026 -2.0192 -0.4227 -0.1686
    3ALA    HB2   23  14.432  13.433   9.173  0.2014  0.5138  0.9279
    3ALA    HB3   24  14.481  13.598   9.195 -0.4240 -0.1436 -0.6511
    3ALA      C   25  14.719  13.489   9.246  0.6074  0.8281  0.1196
    3ALA      O   26  14.802  13.583   9.248  0.0931 -0.5888 -0.4367
    4ALA      N   27  14.704  13.398   9.339  0.3679  0.6935  0.0395
    4ALA      H   28  14.635  13.326   9.326  2.8540 -1.7237 -0.8726
    4ALA     CA   29  14.774  13.402   9.470  0.2731 -0.2902 -0.2401
    4ALA     HA   30  14.841  13.487   9.464  0.0620 -0.2128 -2.4404
    4ALA     CB   31  14.673  13.434   9.581 -0.2212  0.4442 -0.2232
    4ALA    HB1   32  14.727  13.446   9.675  3.0934  2.1163 -2.1066
    4ALA    HB2   33  14.638  13.535   9.562  3.9840  1.9593 -0.7656
    4ALA    HB3   34  14.591  13.364   9.595  0.8605 -0.8025  0.1942
    4ALA      C   35  14.851  13.266   9.499 -0.4750 -0.1890  0.1235
    4ALA      O   36  14.910  13.252   9.604  0.5725 -0.0926  0.1462
    5NME      N   37  14.859  13.172   9.404 -0.0733  0.0208 -0.4673
    5NME      H   38  14.814  13.189   9.316  0.9730 -0.4192 -1.0963
    5NME    CH3   39  14.932  13.048   9.415  0.2118  0.4726 -0.5804
    5NME   HH31   40  15.031  13.077   9.451  0.1419 -0.7500  0.7165
    5NME   HH32   41  14.876  12.985   9.484 -0.1823  1.0874 -0.3233
    5NME   HH33   42  14.945  13.013   9.313  0.5365 -0.5789 -0.1963
  20.91516  20.91516  20.91516
>>>>>>> e505351e8895c44bcd67ad8436d05c0eaca14691
