Protein
   22
    1ACE   HH31    1   7.594   4.789   9.274  1.0901  0.4175  0.6161
    1ACE    CH3    2   7.556   4.804   9.375 -0.7958 -0.5171  0.0984
    1ACE   HH32    3   7.451   4.830   9.379 -0.2980  1.6184  1.3274
    1ACE   HH33    4   7.623   4.881   9.413  0.9246 -1.6081 -0.5615
    1ACE      C    5   7.573   4.680   9.454  0.0282  0.2318 -0.9659
    1ACE      O    6   7.663   4.674   9.541 -0.7410  0.9696  0.3353
    2ALA      N    7   7.496   4.579   9.421  0.5668 -0.4794  0.1515
    2ALA      H    8   7.422   4.613   9.361 -0.6259 -2.4997  0.3561
    2ALA     CA    9   7.492   4.444   9.463  0.0508  0.2894 -0.5385
    2ALA     HA   10   7.588   4.400   9.438  1.1888  1.2955  1.6854
    2ALA     CB   11   7.473   4.440   9.619 -0.2411  0.2902 -0.2036
    2ALA    HB1   12   7.443   4.340   9.650 -1.7936  1.2983  1.8745
    2ALA    HB2   13   7.562   4.472   9.672  0.2408 -0.9692 -0.2365
    2ALA    HB3   14   7.389   4.505   9.646 -0.3477 -0.1135  0.4633
    2ALA      C   15   7.383   4.364   9.389  0.7846 -0.2749 -0.0420
    2ALA      O   16   7.269   4.398   9.379  0.3220  0.0077  0.4789
    3NME      N   17   7.434   4.266   9.308 -0.0722 -0.0019 -0.1294
    3NME      H   18   7.532   4.245   9.319 -0.0717 -0.2402 -0.5491
    3NME    CH3   19   7.353   4.183   9.227  0.1149  0.3840  0.2918
    3NME   HH31   20   7.250   4.185   9.261  0.0105  0.5256 -0.0308
    3NME   HH32   21   7.380   4.217   9.127  0.1288  1.4050  0.6260
    3NME   HH33   22   7.392   4.081   9.227  3.0897  1.3935 -1.1006
  10.72160  10.72160  10.72160
