Protein
   32
    1ACE   HH31    1   2.443  18.781   1.882 -0.3270  0.1455 -0.3347
    1ACE    CH3    2   2.464  18.684   1.928 -0.5836 -0.0688 -0.6572
    1ACE   HH32    3   2.375  18.642   1.974 -0.8169  0.0125 -1.0300
    1ACE   HH33    4   2.537  18.694   2.008 -2.1307 -2.2208  1.1514
    1ACE      C    5   2.512  18.586   1.826 -0.0141  0.3406  0.2041
    1ACE      O    6   2.630  18.554   1.836  0.6216 -0.6681 -0.0766
    2ALA      N    7   2.433  18.550   1.727  0.2760 -0.3083  0.3951
    2ALA      H    8   2.341  18.591   1.740  0.7728  0.2624  2.5995
    2ALA     CA    9   2.484  18.520   1.593 -0.4016 -0.2588  0.8157
    2ALA     HA   10   2.592  18.535   1.596 -0.3375 -0.0670 -1.3091
    2ALA     CB   11   2.452  18.376   1.552  0.2451 -0.1868  0.0295
    2ALA    HB1   12   2.346  18.374   1.527  0.0307  1.8928  0.5629
    2ALA    HB2   13   2.514  18.348   1.467 -1.6611 -0.1741 -1.4314
    2ALA    HB3   14   2.460  18.308   1.637 -3.0780  0.6582  1.1776
    2ALA      C   15   2.426  18.619   1.488  0.8072  0.7536 -0.2193
    2ALA      O   16   2.370  18.719   1.530  0.0349  0.2203 -0.6852
    3ALA      N   17   2.429  18.588   1.361 -0.0054 -0.1496  0.7868
    3ALA      H   18   2.467  18.501   1.328 -0.7053  0.1970 -1.0480
    3ALA     CA   19   2.376  18.670   1.249 -0.2221 -0.0507 -0.2069
    3ALA     HA   20   2.402  18.774   1.267 -2.3244  0.8187 -1.7871
    3ALA     CB   21   2.447  18.619   1.124  0.0903  0.1930  0.4222
    3ALA    HB1   22   2.403  18.665   1.036 -3.3606 -2.8285  0.3038
    3ALA    HB2   23   2.554  18.639   1.128  0.2378 -0.5280  0.2354
    3ALA    HB3   24   2.429  18.511   1.123 -2.0273  0.4738  0.4586
    3ALA      C   25   2.220  18.662   1.245  0.2875 -0.0170 -0.4684
    3ALA      O   26   2.164  18.592   1.160 -0.6599  0.2518 -0.4341
    4NME      N   27   2.159  18.750   1.320 -0.1251 -0.0714 -0.2252
    4NME      H   28   2.212  18.809   1.382 -0.6834 -0.5478  0.7125
    4NME    CH3   29   2.017  18.779   1.301  0.1111  0.1707 -0.0847
    4NME   HH31   30   1.948  18.705   1.341  0.6940  0.3172  1.2402
    4NME   HH32   31   2.002  18.875   1.350  2.8669  0.5971  0.1142
    4NME   HH33   32   1.989  18.793   1.197 -0.1204  0.1296 -0.0312
  20.99041  20.99041  20.99041
