Protein
   32
    1ACE   HH31    1   8.966   9.745   6.003  0.5836  0.8829 -0.9425
    1ACE    CH3    2   8.938   9.839   6.051  0.1294  0.1234  0.3230
    1ACE   HH32    3   8.871   9.879   5.976  0.8466 -1.3068 -1.1495
    1ACE   HH33    4   9.029   9.896   6.070  0.2633 -0.2216  0.7717
    1ACE      C    5   8.860   9.838   6.174 -0.5102  0.0554  0.3503
    1ACE      O    6   8.824   9.948   6.220 -0.6183 -0.5774  0.0345
    2ALA      N    7   8.824   9.723   6.224  0.5163  0.2987  0.4194
    2ALA      H    8   8.859   9.634   6.191  2.2570 -0.3198  3.5242
    2ALA     CA    9   8.758   9.717   6.355 -0.4671 -0.7677 -0.4814
    2ALA     HA   10   8.798   9.788   6.428 -1.0792 -0.1652 -0.7293
    2ALA     CB   11   8.610   9.749   6.338  0.1252  0.3207 -0.5821
    2ALA    HB1   12   8.552   9.730   6.428  0.4690 -0.4919 -0.5256
    2ALA    HB2   13   8.601   9.853   6.306  1.2202  0.7603  0.4709
    2ALA    HB3   14   8.587   9.676   6.260  1.6888 -0.7768 -0.0695
    2ALA      C   15   8.770   9.585   6.424  0.3694 -0.7785  0.8525
    2ALA      O   16   8.790   9.481   6.358  0.3733 -0.2494  0.1955
    3ALA      N   17   8.762   9.593   6.556 -0.1482 -0.7498 -0.0430
    3ALA      H   18   8.768   9.686   6.594  0.5149 -0.0966 -1.6381
    3ALA     CA   19   8.780   9.480   6.640 -0.3698 -0.4259  0.5662
    3ALA     HA   20   8.824   9.396   6.588  3.4322 -0.4311  3.3572
    3ALA     CB   21   8.879   9.506   6.753 -1.0817  0.7645 -0.0140
    3ALA    HB1   22   8.860   9.425   6.824  1.2400 -2.3275 -2.5881
    3ALA    HB2   23   8.982   9.479   6.728 -0.3677  0.1219  3.1163
    3ALA    HB3   24   8.871   9.595   6.815  0.2063  2.0799 -1.6808
    3ALA      C   25   8.643   9.441   6.699 -0.6075  0.2691  0.0514
    3ALA      O   26   8.558   9.524   6.726 -0.1907 -0.4012  0.6636
    4NME      N   27   8.625   9.307   6.715  0.4634  0.2792 -0.5108
    4NME      H   28   8.702   9.245   6.691  0.6600  0.3059  0.0284
    4NME    CH3   29   8.509   9.241   6.773 -0.3075 -0.1727  0.0605
    4NME   HH31   30   8.441   9.321   6.802  3.3389  3.0236  0.4794
    4NME   HH32   31   8.461   9.169   6.707 -1.4178  1.1338 -0.6080
    4NME   HH33   32   8.537   9.201   6.870 -2.0357 -0.3800  0.5214
  20.99041  20.99041  20.99041
