Protein
   42
    1ACE   HH31    1  10.529  10.544  10.776 -4.4282 -0.5337 -0.1140
    1ACE    CH3    2  10.555  10.486  10.865 -0.1506  0.1980 -0.6741
    1ACE   HH32    3  10.508  10.527  10.955 -0.8733  2.4626 -1.9980
    1ACE   HH33    4  10.664  10.487  10.872 -0.2082  0.8970  0.2289
    1ACE      C    5  10.505  10.345  10.856 -0.3897 -0.0876  0.0632
    1ACE      O    6  10.465  10.291  10.965  0.2817  0.3281 -0.2470
    2ALA      N    7  10.496  10.298  10.729  0.8479  0.2486 -0.3230
    2ALA      H    8  10.523  10.363  10.656  0.4685 -1.2489 -1.8797
    2ALA     CA    9  10.459  10.161  10.689  0.1058 -0.4483 -0.3400
    2ALA     HA   10  10.351  10.153  10.678  0.1512 -0.6538 -0.6246
    2ALA     CB   11  10.507  10.133  10.552 -0.3022 -0.1931 -0.0675
    2ALA    HB1   12  10.613  10.160  10.547 -0.3795  0.0299 -0.5961
    2ALA    HB2   13  10.497  10.029  10.523 -1.7944  0.4941 -2.2908
    2ALA    HB3   14  10.447  10.196  10.486  0.4032  0.9441  0.3477
    2ALA      C   15  10.502  10.052  10.795  0.1552  0.5457  0.3717
    2ALA      O   16  10.424   9.954  10.804 -0.4495 -0.4636 -0.0905
    3ALA      N   17  10.621  10.068  10.860  0.3661 -0.2436 -0.0450
    3ALA      H   18  10.678  10.144  10.825 -0.2384 -0.6499 -2.0537
    3ALA     CA   19  10.687   9.980  10.957 -0.1497 -0.1642 -0.7095
    3ALA     HA   20  10.609   9.931  11.017 -0.0628 -0.4054 -0.7896
    3ALA     CB   21  10.766   9.873  10.876  0.0539 -0.2428 -0.2984
    3ALA    HB1   22  10.847   9.827  10.933  1.4073  1.4269 -0.8218
    3ALA    HB2   23  10.704   9.800  10.823  2.4659 -1.7224 -1.2668
    3ALA    HB3   24  10.818   9.931  10.800 -0.7275 -0.8008 -1.2759
    3ALA      C   25  10.780  10.068  11.040  0.2000 -0.0255  0.4654
    3ALA      O   26  10.905  10.052  11.032  0.0902 -0.5197  0.3198
    4ALA      N   27  10.720  10.176  11.098 -0.0519  0.2283 -0.0591
    4ALA      H   28  10.623  10.192  11.073  0.2330  0.4693 -1.0454
    4ALA     CA   29  10.787  10.263  11.194 -0.3499  0.6446 -0.0630
    4ALA     HA   30  10.858  10.315  11.129  1.0963 -1.0484  0.0783
    4ALA     CB   31  10.687  10.364  11.245  0.2545 -0.0585  0.5899
    4ALA    HB1   32  10.616  10.318  11.314  0.6999  0.0316  1.1076
    4ALA    HB2   33  10.736  10.446  11.296 -0.4912  0.0614  1.1161
    4ALA    HB3   34  10.644  10.415  11.158  0.6328 -1.7461 -0.6476
    4ALA      C   35  10.861  10.184  11.306  0.5440 -0.2740 -0.6865
    4ALA      O   36  10.855  10.059  11.306  0.2345  0.6746  0.3791
    5NME      N   37  10.899  10.252  11.412 -0.6736 -0.2000 -0.4942
    5NME      H   38  10.893  10.352  11.400 -0.0095  0.1313  1.4714
    5NME    CH3   39  10.926  10.194  11.544  0.3536  0.2357 -0.0180
    5NME   HH31   40  10.835  10.201  11.603  0.8748 -0.0470  0.8477
    5NME   HH32   41  10.973  10.096  11.535  0.9680  0.6429 -1.6864
    5NME   HH33   42  10.998  10.256  11.599 -0.2796  0.5004  0.5238
  20.91516  20.91516  20.91516
