Protein
   42
    1ACE   HH31    1   8.521  10.357   7.151  0.7606  0.1638 -0.4272
    1ACE    CH3    2   8.542  10.398   7.250  0.2904 -0.1393 -0.1931
    1ACE   HH32    3   8.497  10.340   7.331  1.7021  0.9989  1.4940
    1ACE   HH33    4   8.499  10.498   7.258 -1.0682 -0.7644  0.6805
    1ACE      C    5   8.688  10.398   7.287 -0.1141  0.7470  0.5880
    1ACE      O    6   8.731  10.315   7.367  0.2868 -0.3867  0.5692
    2ALA      N    7   8.761  10.488   7.228 -0.3611 -0.4853 -0.2055
    2ALA      H    8   8.721  10.547   7.157 -1.0473  0.0718  0.6261
    2ALA     CA    9   8.898  10.518   7.265 -0.7098  0.4393 -0.0339
    2ALA     HA   10   8.933  10.446   7.340  3.3585  0.8013 -1.3541
    2ALA     CB   11   8.980  10.483   7.144 -0.7125  0.5404  0.4776
    2ALA    HB1   12   8.967  10.375   7.137  0.6237  0.4324 -0.6469
    2ALA    HB2   13   8.959  10.543   7.056 -1.0815 -1.4434 -0.8521
    2ALA    HB3   14   9.084  10.510   7.162 -0.7472  0.7038  0.4404
    2ALA      C   15   8.915  10.664   7.323  0.0297  0.2236 -0.3141
    2ALA      O   16   8.876  10.749   7.244 -0.3999  0.2550  0.1910
    3ALA      N   17   8.952  10.703   7.447  0.1622 -0.0184  0.6523
    3ALA      H   18   8.941  10.803   7.455 -0.5541  0.1040 -1.0785
    3ALA     CA   19   9.050  10.646   7.541 -0.1531  0.7280 -0.2933
    3ALA     HA   20   8.999  10.583   7.613 -0.6639 -0.2345 -1.4399
    3ALA     CB   21   9.151  10.567   7.456 -0.6540 -0.0109  0.0821
    3ALA    HB1   22   9.180  10.619   7.365 -0.1555 -2.6239 -1.3602
    3ALA    HB2   23   9.243  10.550   7.511 -0.4628  1.8876  0.3952
    3ALA    HB3   24   9.113  10.469   7.426 -3.0675  1.7454 -3.3972
    3ALA      C   25   9.142  10.759   7.609 -0.5131 -0.8765 -0.3730
    3ALA      O   26   9.134  10.879   7.577  0.2298  0.5437  0.4657
    4ALA      N   27   9.239  10.710   7.694  0.3036 -0.1831  0.2199
    4ALA      H   28   9.258  10.612   7.710  3.4218  0.2590 -0.0738
    4ALA     CA   29   9.324  10.798   7.781  0.3516 -0.2059  0.1563
    4ALA     HA   30   9.404  10.843   7.723 -0.0735  0.1682 -0.1428
    4ALA     CB   31   9.249  10.907   7.861  0.0735 -0.2062  0.2622
    4ALA    HB1   32   9.157  10.866   7.903 -0.2551 -1.6098 -1.6749
    4ALA    HB2   33   9.308  10.960   7.936  3.6399 -0.8378 -1.9238
    4ALA    HB3   34   9.211  10.982   7.791 -1.1484 -0.8827  0.1606
    4ALA      C   35   9.384  10.703   7.887 -0.1799 -0.2377  0.0033
    4ALA      O   36   9.350  10.586   7.904 -0.6686 -0.5784  0.2444
    5NME      N   37   9.483  10.765   7.962 -0.2554 -0.2426 -0.5316
    5NME      H   38   9.530  10.841   7.916 -2.3827  0.6120 -1.4562
    5NME    CH3   39   9.536  10.705   8.082 -0.1874 -0.0153 -0.2941
    5NME   HH31   40   9.547  10.773   8.167  2.5961  0.0293 -0.5926
    5NME   HH32   41   9.472  10.624   8.117 -0.2459  0.1811  0.0670
    5NME   HH33   42   9.639  10.672   8.067 -0.1238  0.4777 -0.9726
  20.91516  20.91516  20.91516
