Protein
   32
    1ACE   HH31    1  11.791  11.554  13.409 -0.3700 -1.3915  1.4829
    1ACE    CH3    2  11.900  11.561  13.408 -0.4160 -0.3888 -0.1305
    1ACE   HH32    3  11.934  11.458  13.414 -0.6056 -0.6740 -2.6903
    1ACE   HH33    4  11.935  11.619  13.493 -0.3738 -2.5331  1.4065
    1ACE      C    5  11.938  11.611  13.272  0.1623  0.2096 -0.5938
    1ACE      O    6  12.050  11.652  13.253  0.2610 -0.4118 -0.0576
    2ALA      N    7  11.841  11.612  13.177  0.3849  0.1457  0.1246
    2ALA      H    8  11.745  11.593  13.203  0.1274  2.1880  0.8849
    2ALA     CA    9  11.862  11.638  13.040 -0.1616 -0.2080  0.6600
    2ALA     HA   10  11.936  11.567  13.005  0.9773  0.2501  2.0013
    2ALA     CB   11  11.722  11.611  12.976  0.1699 -0.0133 -0.2293
    2ALA    HB1   12  11.654  11.686  13.017  0.0454 -0.4489  0.3679
    2ALA    HB2   13  11.721  11.626  12.868  0.1359 -2.6739 -0.6764
    2ALA    HB3   14  11.677  11.517  13.007 -0.6472  0.9287  1.5810
    2ALA      C   15  11.921  11.773  13.000 -0.5439  0.1961  0.1878
    2ALA      O   16  11.953  11.790  12.880  0.1013 -0.3792  0.5275
    3ALA      N   17  11.930  11.868  13.095 -0.4100  0.3285 -0.3257
    3ALA      H   18  11.891  11.845  13.185 -1.4336  1.6228 -0.4106
    3ALA     CA   19  11.998  11.994  13.078 -0.3070  0.7864 -0.4286
    3ALA     HA   20  12.055  11.987  12.986 -0.3999 -1.8505 -0.3708
    3ALA     CB   21  11.898  12.108  13.043 -0.1214  0.3561 -0.6775
    3ALA    HB1   22  11.951  12.200  13.019  1.9543 -0.0694  1.7764
    3ALA    HB2   23  11.849  12.080  12.950  0.2481 -0.1772 -0.7151
    3ALA    HB3   24  11.833  12.121  13.130 -0.0590 -1.6082 -0.2836
    3ALA      C   25  12.101  12.031  13.190  0.2311  0.1711  0.1545
    3ALA      O   26  12.131  12.148  13.198  0.2514 -0.9442  0.1559
    4NME      N   27  12.132  11.938  13.280  0.1427  0.8116 -0.6712
    4NME      H   28  12.093  11.846  13.266  0.1247  0.5556  0.9536
    4NME    CH3   29  12.212  11.960  13.400 -0.7923 -0.7838  0.0250
    4NME   HH31   30  12.287  11.881  13.402  0.2580  0.1869  0.1313
    4NME   HH32   31  12.253  12.060  13.386 -0.9572 -0.9324 -1.8830
    4NME   HH33   32  12.159  11.941  13.493  1.4268 -0.7504  1.3740
  20.99041  20.99041  20.99041
