Protein
   22
    1ACE   HH31    1   0.535   1.571   6.373  0.3385  0.0139 -1.5058
    1ACE    CH3    2   0.433   1.558   6.337 -0.2651  0.7240 -0.1628
    1ACE   HH32    3   0.375   1.516   6.419 -1.9112  2.0809 -0.5643
    1ACE   HH33    4   0.430   1.492   6.250 -0.1440 -0.8620  1.0014
    1ACE      C    5   0.368   1.686   6.296  0.3664 -0.4448 -0.5087
    1ACE      O    6   0.358   1.773   6.383  0.2565  0.4827 -0.2077
    2ALA      N    7   0.302   1.697   6.178  0.5028  0.4222 -0.0641
    2ALA      H    8   0.311   1.620   6.114 -1.1911  1.4225 -1.5810
    2ALA     CA    9   0.236   1.809   6.108  0.2451  0.1116  0.2863
    2ALA     HA   10   0.132   1.808   6.143  0.6769  0.0413  1.6168
    2ALA     CB   11   0.299   1.946   6.140  0.3848  0.7803 -0.6259
    2ALA    HB1   12   0.265   2.030   6.080 -0.6406  0.6620 -0.2289
    2ALA    HB2   13   0.272   1.978   6.241 -1.1470  0.7314 -1.0063
    2ALA    HB3   14   0.407   1.931   6.141  0.1144 -1.4187 -0.0273
    2ALA      C   15   0.237   1.779   5.957  0.0797 -0.2639 -0.7758
    2ALA      O   16   0.289   1.671   5.921  0.1544  0.0482 -0.1151
    3NME      N   17   0.199   1.874   5.875  0.2564 -0.2550  0.0167
    3NME      H   18   0.175   1.964   5.915  0.6464 -0.6586  1.2093
    3NME    CH3   19   0.199   1.858   5.729 -0.1353 -0.1065  0.2741
    3NME   HH31   20   0.280   1.791   5.702 -1.7807 -1.8686 -0.5976
    3NME   HH32   21   0.102   1.819   5.698  0.4433 -0.8075 -0.6823
    3NME   HH33   22   0.211   1.954   5.679  1.3523 -1.6282 -2.5416
  10.72160  10.72160  10.72160
