Protein
   32
    1ACE   HH31    1  11.810  16.157  11.563 -4.0042 -0.5779 -0.1628
    1ACE    CH3    2  11.829  16.171  11.456  0.3772  0.1418  0.5098
    1ACE   HH32    3  11.910  16.242  11.437  0.8982 -0.5889 -0.0527
    1ACE   HH33    4  11.742  16.223  11.418 -0.3254  0.6956  2.7177
    1ACE      C    5  11.865  16.038  11.382 -0.0234 -0.0953  0.3310
    1ACE      O    6  11.913  16.048  11.271  0.4238  0.0467  0.3624
    2ALA      N    7  11.827  15.921  11.437 -0.7940  0.3786  0.0995
    2ALA      H    8  11.785  15.922  11.528  2.5227 -0.5320  1.7968
    2ALA     CA    9  11.871  15.791  11.387  0.2952  0.5982 -0.1524
    2ALA     HA   10  11.887  15.785  11.279 -1.3527  0.6157 -0.4349
    2ALA     CB   11  12.006  15.763  11.456 -0.7018  0.0911 -0.3820
    2ALA    HB1   12  12.056  15.679  11.409 -1.1306  0.3070 -1.2468
    2ALA    HB2   13  12.069  15.850  11.435 -0.4740  0.1786  0.6237
    2ALA    HB3   14  12.001  15.762  11.565 -1.4272  4.5414 -0.1732
    2ALA      C   15  11.770  15.675  11.408  0.0387  0.0362 -0.2845
    2ALA      O   16  11.660  15.697  11.465  0.2123  0.1026 -0.3491
    3ALA      N   17  11.798  15.555  11.348 -0.6578 -0.0159 -0.3859
    3ALA      H   18  11.885  15.541  11.299  0.4499 -2.8666  2.1036
    3ALA     CA   19  11.691  15.456  11.329 -0.6557 -0.6901  0.2258
    3ALA     HA   20  11.596  15.506  11.351  1.1570  1.9531  2.9693
    3ALA     CB   21  11.702  15.414  11.181 -0.5774 -0.2772 -0.0056
    3ALA    HB1   22  11.626  15.338  11.163 -0.6845 -0.8584  2.4541
    3ALA    HB2   23  11.685  15.504  11.121  0.3084 -0.8828 -1.1990
    3ALA    HB3   24  11.800  15.372  11.158 -0.1995 -0.0233  1.0499
    3ALA      C   25  11.721  15.343  11.425 -0.4013  0.0886  0.2156
    3ALA      O   26  11.790  15.246  11.401  0.1695  0.0238  0.3673
    4NME      N   27  11.670  15.361  11.547 -0.0528 -0.0322 -0.4744
    4NME      H   28  11.632  15.454  11.555  0.7157  0.4601 -1.9561
    4NME    CH3   29  11.688  15.270  11.661  0.1733 -0.3126  1.3058
    4NME   HH31   30  11.610  15.273  11.736 -0.4768  0.0319  0.6375
    4NME   HH32   31  11.720  15.170  11.631 -1.3613 -0.7906  1.1911
    4NME   HH33   32  11.775  15.303  11.718  1.2113  1.7814 -1.2534
  20.99041  20.99041  20.99041
