Protein
   42
    1ACE   HH31    1  10.319  13.311  18.225  0.4935 -1.9594  0.1591
    1ACE    CH3    2  10.213  13.327  18.209  0.7449 -0.0475  0.2514
    1ACE   HH32    3  10.176  13.225  18.203 -1.8810  0.6401  2.4513
    1ACE   HH33    4  10.184  13.390  18.125 -1.0908 -0.0187  0.8443
    1ACE      C    5  10.152  13.398  18.328 -0.3584  0.0725 -0.1385
    1ACE      O    6  10.068  13.344  18.396 -0.7120  0.1353 -0.1772
    2ALA      N    7  10.197  13.519  18.364  0.4076 -0.4426  0.1982
    2ALA      H    8  10.272  13.555  18.308  0.3793 -1.9918 -0.9056
    2ALA     CA    9  10.164  13.587  18.490 -0.0864 -0.1909  0.3457
    2ALA     HA   10  10.118  13.510  18.552 -1.2714  0.9226  0.9051
    2ALA     CB   11  10.295  13.616  18.567 -0.6415  0.9725  0.5109
    2ALA    HB1   12  10.362  13.531  18.574 -2.9083 -0.9639  0.3098
    2ALA    HB2   13  10.351  13.692  18.514 -1.1558  0.3422 -1.0152
    2ALA    HB3   14  10.273  13.652  18.667 -0.9786  2.5358 -0.0963
    2ALA      C   15  10.066  13.706  18.479  1.0286 -0.0465 -0.1504
    2ALA      O   16  10.045  13.771  18.579  0.0285 -0.5991 -0.2690
    3ALA      N   17  10.013  13.759  18.366  0.0025  0.2933 -0.1372
    3ALA      H   18   9.950  13.833  18.394  0.2305  0.2670  0.4622
    3ALA     CA   19  10.015  13.715  18.223  0.0874 -1.0683  0.2667
    3ALA     HA   20  10.007  13.607  18.210 -0.5804 -0.9104 -0.7771
    3ALA     CB   21   9.893  13.776  18.164 -0.2020  0.0900 -0.3023
    3ALA    HB1   22   9.903  13.882  18.185 -0.4654 -0.1091  0.9263
    3ALA    HB2   23   9.884  13.760  18.057 -1.9397  1.5316 -0.4172
    3ALA    HB3   24   9.806  13.737  18.218  0.5414  0.8963  1.5419
    3ALA      C   25  10.143  13.761  18.146  0.3421  0.4744  0.0433
    3ALA      O   26  10.168  13.721  18.032  0.1948  0.6894 -0.2765
    4ALA      N   27  10.231  13.833  18.216 -0.7424  0.3225 -0.2615
    4ALA      H   28  10.195  13.858  18.308 -0.1340 -0.7192  0.2796
    4ALA     CA   29  10.379  13.838  18.197  0.8907 -0.1337  0.1522
    4ALA     HA   30  10.390  13.894  18.104 -2.8838  1.0138  0.2117
    4ALA     CB   31  10.436  13.933  18.313 -0.1066 -0.3052 -0.1099
    4ALA    HB1   32  10.378  14.025  18.307 -0.3427 -0.4714 -0.6845
    4ALA    HB2   33  10.428  13.884  18.410  1.4637  1.4952  1.0045
    4ALA    HB3   34  10.539  13.962  18.295 -0.0875 -0.9506 -1.1337
    4ALA      C   35  10.453  13.709  18.179  0.0147  0.5510  0.4966
    4ALA      O   36  10.429  13.610  18.252  0.1138 -0.4727 -0.0653
    5NME      N   37  10.566  13.710  18.107 -0.3993  0.1575 -0.2872
    5NME      H   38  10.601  13.798  18.071  1.0802 -0.1458  0.3362
    5NME    CH3   39  10.639  13.594  18.064 -0.0809 -0.2863  0.1953
    5NME   HH31   40  10.734  13.618  18.016 -0.6344 -0.4306 -1.0099
    5NME   HH32   41  10.655  13.524  18.146 -3.0331  0.4884  1.5450
    5NME   HH33   42  10.585  13.546  17.982  0.2575 -1.6790  0.7728
  20.91516  20.91516  20.91516
