Protein
   42
    1ACE   HH31    1   9.718  10.230   7.724  0.3116 -0.0216  0.2289
    1ACE    CH3    2   9.742  10.219   7.830 -0.8668  0.2596  0.5370
    1ACE   HH32    3   9.659  10.252   7.892 -0.7437  0.8153  0.4194
    1ACE   HH33    4   9.836  10.269   7.854 -0.6932  1.1896 -1.7652
    1ACE      C    5   9.762  10.070   7.842 -0.2852 -0.0516 -0.1388
    1ACE      O    6   9.696  10.006   7.919 -0.5298  0.0620 -0.1061
    2ALA      N    7   9.846  10.014   7.750 -0.4515  0.0195  0.3618
    2ALA      H    8   9.871  10.084   7.681  1.1309 -0.0338  0.8347
    2ALA     CA    9   9.878   9.878   7.715  0.1188  0.6193 -0.5535
    2ALA     HA   10   9.948   9.882   7.631  0.0381  1.4925 -0.5892
    2ALA     CB   11   9.952   9.806   7.826 -0.6664  0.8988  0.2166
    2ALA    HB1   12   9.879   9.775   7.901 -1.3275 -0.8635 -1.0635
    2ALA    HB2   13   9.991   9.711   7.790 -1.8223 -0.1914  1.6982
    2ALA    HB3   14  10.029   9.871   7.865  2.0643 -1.4570 -0.8753
    2ALA      C   15   9.748   9.790   7.674  0.4005 -0.3032 -0.6564
    2ALA      O   16   9.770   9.698   7.588  0.6199  0.4573 -0.9611
    3ALA      N   17   9.632   9.816   7.732 -0.0206  0.0044  0.1690
    3ALA      H   18   9.632   9.889   7.801 -2.7057 -0.3416  0.6567
    3ALA     CA   19   9.495   9.767   7.725  0.4704 -0.2238  0.3678
    3ALA     HA   20   9.429   9.846   7.688 -2.5331 -1.7305  2.1519
    3ALA     CB   21   9.483   9.637   7.643 -0.3917 -0.0032 -0.1005
    3ALA    HB1   22   9.551   9.564   7.686 -0.6127  0.5431  1.2082
    3ALA    HB2   23   9.381   9.599   7.651 -1.1265  1.6365 -1.0380
    3ALA    HB3   24   9.510   9.652   7.538 -2.4916 -1.4560 -0.9101
    3ALA      C   25   9.441   9.740   7.869  0.0025  0.0303 -0.4781
    3ALA      O   26   9.328   9.774   7.898 -0.5189 -0.0078 -0.4661
    4ALA      N   27   9.527   9.688   7.959 -0.1564 -0.2669  0.0423
    4ALA      H   28   9.620   9.672   7.924 -0.3758 -1.3989 -0.0188
    4ALA     CA   29   9.522   9.694   8.101 -0.1336  0.2025 -0.3885
    4ALA     HA   30   9.483   9.599   8.137 -0.7139 -0.2184 -1.9843
    4ALA     CB   31   9.667   9.719   8.164 -0.2411 -0.6373  0.2695
    4ALA    HB1   32   9.702   9.819   8.137 -1.0665 -0.0882  1.1727
    4ALA    HB2   33   9.667   9.706   8.272  1.2215 -1.0583  0.2400
    4ALA    HB3   34   9.741   9.656   8.115 -0.0911  0.0496 -0.4348
    4ALA      C   35   9.434   9.804   8.158 -0.3554 -0.1701 -1.1818
    4ALA      O   36   9.356   9.778   8.254  0.0794  0.1511  0.4708
    5NME      N   37   9.453   9.925   8.103  0.4489 -0.2124 -0.2120
    5NME      H   38   9.519   9.937   8.028  1.1839  0.1331  0.4779
    5NME    CH3   39   9.384  10.050   8.148 -0.6346  0.0077  0.3670
    5NME   HH31   40   9.458  10.106   8.206  0.5472 -0.0343 -1.0456
    5NME   HH32   41   9.355  10.116   8.066  4.0174  2.5024  0.3884
    5NME   HH33   42   9.307  10.018   8.218  0.2019 -0.5567  1.0546
  20.91516  20.91516  20.91516
