Protein
   32
    1ACE   HH31    1  11.698   7.950   5.097 -0.4489 -0.4007  1.3693
    1ACE    CH3    2  11.617   7.883   5.070 -0.9258  0.4769  0.5628
    1ACE   HH32    3  11.625   7.866   4.962  3.9663 -1.1424  0.9355
    1ACE   HH33    4  11.523   7.932   5.096 -0.6818  0.6895  1.0682
    1ACE      C    5  11.640   7.756   5.159 -0.5586 -0.2483 -0.4921
    1ACE      O    6  11.535   7.692   5.174 -0.5007 -0.4530  0.0254
    2ALA      N    7  11.759   7.711   5.211 -0.0091  0.5473 -0.2144
    2ALA      H    8  11.844   7.761   5.188  0.8170 -1.5775 -2.2841
    2ALA     CA    9  11.777   7.601   5.308  0.0001 -0.4921  0.2378
    2ALA     HA   10  11.727   7.515   5.264 -0.2995 -0.8892  1.3106
    2ALA     CB   11  11.928   7.576   5.330  0.6025  0.0541 -0.1232
    2ALA    HB1   12  11.992   7.574   5.242  2.3417  1.1307  1.0565
    2ALA    HB2   13  11.975   7.646   5.398 -0.8773  0.6490  0.3120
    2ALA    HB3   14  11.937   7.475   5.372  0.1924  0.2065  0.3419
    2ALA      C   15  11.705   7.647   5.440  0.3547  0.2580 -0.0136
    2ALA      O   16  11.771   7.691   5.539 -0.4851  0.2176 -0.2946
    3ALA      N   17  11.574   7.629   5.447 -0.0770 -0.5217 -0.3044
    3ALA      H   18  11.522   7.602   5.365 -2.3536  0.7450  0.6033
    3ALA     CA   19  11.490   7.667   5.567  0.0839 -0.2658 -0.3897
    3ALA     HA   20  11.528   7.624   5.659 -0.8168 -0.4372 -0.0857
    3ALA     CB   21  11.482   7.821   5.581 -0.0110  0.8862 -0.3841
    3ALA    HB1   22  11.583   7.864   5.586  1.4567 -2.1438 -1.5938
    3ALA    HB2   23  11.435   7.874   5.498 -2.4487 -2.2069 -1.1549
    3ALA    HB3   24  11.429   7.845   5.673 -0.9284  0.7022 -0.8601
    3ALA      C   25  11.353   7.600   5.547 -0.1493 -0.1002  0.2124
    3ALA      O   26  11.337   7.483   5.583 -0.5914 -0.6043 -0.2739
    4NME      N   27  11.252   7.683   5.494 -0.6044  0.2243 -0.0700
    4NME      H   28  11.262   7.783   5.490 -0.0820  0.1563 -1.7246
    4NME    CH3   29  11.122   7.643   5.443  0.3967  0.9994  0.0380
    4NME   HH31   30  11.077   7.573   5.514 -0.8732  0.5043 -1.1998
    4NME   HH32   31  11.058   7.731   5.449 -0.2648  0.4641  1.5422
    4NME   HH33   32  11.127   7.585   5.351 -1.9809 -0.9251  0.9948
  20.99041  20.99041  20.99041
