Protein
   42
    1ACE   HH31    1   5.126   7.487  10.787  0.3668  0.0824 -1.5802
    1ACE    CH3    2   5.067   7.401  10.755 -0.6912 -0.0262  0.4729
    1ACE   HH32    3   5.110   7.348  10.670 -0.7754 -0.4327  0.6879
    1ACE   HH33    4   4.969   7.442  10.730 -0.6567  1.7397  2.9288
    1ACE      C    5   5.075   7.312  10.878  0.6251  0.9487 -0.1536
    1ACE      O    6   4.974   7.250  10.913 -0.1710 -0.2954  0.0963
    2ALA      N    7   5.190   7.324  10.953  0.2220  0.4311 -0.5937
    2ALA      H    8   5.265   7.386  10.927  1.8801 -0.7296  1.1336
    2ALA     CA    9   5.194   7.270  11.087 -0.4992 -0.6777 -0.6501
    2ALA     HA   10   5.093   7.264  11.126  0.1532  0.2601  1.3816
    2ALA     CB   11   5.243   7.124  11.091 -0.1469  0.8318  1.1901
    2ALA    HB1   12   5.350   7.132  11.067 -0.4159  1.0322 -0.0061
    2ALA    HB2   13   5.219   7.068  11.181  0.1339 -0.7274  0.3357
    2ALA    HB3   14   5.202   7.073  11.004  1.4691  0.3295  0.6721
    2ALA      C   15   5.266   7.368  11.187 -0.6561 -0.1383  0.4787
    2ALA      O   16   5.313   7.475  11.146  0.0823 -0.2172  0.0162
    3ALA      N   17   5.297   7.315  11.304 -0.3595 -0.1472 -0.2163
    3ALA      H   18   5.267   7.221  11.328 -0.4918  0.3960  1.9423
    3ALA     CA   19   5.368   7.389  11.404 -0.3156 -0.1153 -0.2504
    3ALA     HA   20   5.449   7.444  11.355 -1.0961  2.1443  0.8774
    3ALA     CB   21   5.272   7.482  11.476 -0.1832 -0.2258  0.2716
    3ALA    HB1   22   5.308   7.504  11.577 -0.2457  0.2056  0.2007
    3ALA    HB2   23   5.259   7.572  11.417  2.7901  0.4421  0.4663
    3ALA    HB3   24   5.179   7.429  11.494 -0.7682 -0.5305 -2.9706
    3ALA      C   25   5.432   7.288  11.504 -0.1996 -0.3379 -0.8148
    3ALA      O   26   5.409   7.164  11.499  0.6595 -0.7842  0.4365
    4ALA      N   27   5.513   7.340  11.599 -0.2641  0.3953  0.3807
    4ALA      H   28   5.509   7.437  11.624 -0.6414 -0.0751  2.3151
    4ALA     CA   29   5.564   7.246  11.702 -0.0996 -0.0106 -0.0706
    4ALA     HA   30   5.578   7.146  11.660 -1.4148 -1.9319  3.6282
    4ALA     CB   31   5.707   7.299  11.729 -0.1584  0.7643 -0.1821
    4ALA    HB1   32   5.767   7.308  11.638 -0.7944  0.7125 -0.6128
    4ALA    HB2   33   5.707   7.397  11.776  0.2385  0.7786 -0.2041
    4ALA    HB3   34   5.751   7.227  11.798 -0.7217  0.1233 -0.4775
    4ALA      C   35   5.476   7.241  11.836  0.3582 -0.0362  0.5247
    4ALA      O   36   5.433   7.350  11.873  0.8105 -0.2902  0.7447
    5NME      N   37   5.474   7.128  11.902  0.1796 -0.2016 -0.2381
    5NME      H   38   5.491   7.046  11.846  2.1125 -0.0037  0.0079
    5NME    CH3   39   5.412   7.110  12.035  0.3547  0.0829  0.5894
    5NME   HH31   40   5.335   7.186  12.053 -0.0180 -0.5634  1.8419
    5NME   HH32   41   5.374   7.009  12.046 -0.6120  0.0574 -2.3397
    5NME   HH33   42   5.494   7.111  12.107  0.7881 -2.7460  0.1946
  20.91516  20.91516  20.91516
