Protein
   22
    1ACE   HH31    1   2.742   6.592  10.440  0.9805 -1.0955 -0.0228
    1ACE    CH3    2   2.741   6.618  10.546 -0.1841  0.1456 -0.3087
    1ACE   HH32    3   2.686   6.546  10.606  0.7255 -2.0385 -2.0069
    1ACE   HH33    4   2.715   6.724  10.559  0.1606  0.0997  0.8715
    1ACE      C    5   2.884   6.593  10.593 -0.2574  0.5174  0.4152
    1ACE      O    6   2.951   6.684  10.637  0.1915  0.3299 -0.4598
    2ALA      N    7   2.924   6.465  10.595 -0.0168 -0.4535 -0.8820
    2ALA      H    8   2.882   6.388  10.545  1.2542 -1.6826 -0.1210
    2ALA     CA    9   3.044   6.420  10.663 -0.0394  0.2115 -0.3007
    2ALA     HA   10   3.129   6.471  10.619  1.5835 -0.5825  1.7563
    2ALA     CB   11   3.050   6.453  10.815 -0.0299 -0.1708 -0.2293
    2ALA    HB1   12   2.964   6.406  10.863  0.0383 -0.8355 -0.7468
    2ALA    HB2   13   3.139   6.415  10.865  0.2172  1.2289  0.4464
    2ALA    HB3   14   3.045   6.561  10.831  0.7557  0.1628 -1.9696
    2ALA      C   15   3.059   6.270  10.637 -0.6526  0.0244 -0.3250
    2ALA      O   16   3.045   6.223  10.522  0.2020  0.2435 -0.2142
    3NME      N   17   3.086   6.183  10.738 -1.0783 -0.1390 -0.3961
    3NME      H   18   3.117   6.217  10.828 -1.1794 -0.5713 -0.1947
    3NME    CH3   19   3.098   6.035  10.717 -0.0858 -0.5522  0.4020
    3NME   HH31   20   3.001   5.987  10.728 -0.5304  0.8494  4.0722
    3NME   HH32   21   3.144   6.010  10.622 -2.8475 -2.6638 -0.4631
    3NME   HH33   22   3.159   5.988  10.795  1.3191 -0.6543 -0.7185
  10.72160  10.72160  10.72160
