Title
  129
    1AIB    CAY    1  21.281  20.082  22.196  0.4395  0.5287  1.0837
    1AIB    HY1    2  21.355  20.142  22.253  0.7484  0.4627  0.7493
    1AIB    HY2    3  21.325  19.986  22.161 -0.4273  0.4301  0.2450
    1AIB    HY3    4  21.194  20.058  22.262  0.0467  0.4892  0.5615
    1AIB     CY    5  21.226  20.149  22.076 -0.8427 -0.0285  0.0913
    1AIB     OY    6  21.109  20.143  22.045 -0.0065  0.1312  0.3628
    1AIB      N    7  21.320  20.201  21.989  0.0779 -0.2773 -0.3707
    1AIB     HN    8  21.415  20.219  22.010 -0.1074  0.4381 -0.1229
    1AIB     CA    9  21.292  20.257  21.860 -0.3521 -0.3609  0.2142
    1AIB    CB1   10  21.431  20.260  21.793  0.9917  0.3200  0.1022
    1AIB   HB11   11  21.433  20.274  21.683 -1.1199 -1.6865 -0.2673
    1AIB   HB12   12  21.468  20.156  21.801 -1.7365 -0.9041 -1.7906
    1AIB   HB13   13  21.503  20.319  21.854 -0.9586  0.8439  2.0353
    1AIB    CB2   14  21.247  20.407  21.866  0.6166 -0.3054 -0.3315
    1AIB   HB21   15  21.291  20.466  21.949  0.1027 -0.4629  0.0576
    1AIB   HB22   16  21.137  20.410  21.886  0.4071  1.3126 -1.5229
    1AIB   HB23   17  21.274  20.451  21.768  1.3012  0.9273  0.3937
    1AIB      C   18  21.202  20.170  21.764  0.4322 -0.7856 -0.0073
    1AIB      O   19  21.111  20.226  21.694 -0.6394  0.3337  0.1210
    2AIB      N   20  21.230  20.039  21.763  0.4078  0.6420  0.3143
    2AIB     HN   21  21.299  19.998  21.822 -0.7412 -0.4474  0.9242
    2AIB     CA   22  21.151  19.933  21.701 -0.0864 -0.8569  0.0353
    2AIB    CB1   23  21.226  19.797  21.737 -0.3891 -0.1153 -0.0631
    2AIB   HB11   24  21.180  19.717  21.676 -1.2888 -0.6960  1.3010
    2AIB   HB12   25  21.225  19.773  21.846 -2.5315 -1.0865 -0.2328
    2AIB   HB13   26  21.330  19.798  21.699 -0.5306 -0.1869 -0.4406
    2AIB    CB2   27  21.147  19.955  21.547 -0.4102 -0.2295 -0.4565
    2AIB   HB21   28  21.251  19.971  21.510 -0.2149 -0.3308  0.0583
    2AIB   HB22   29  21.087  20.045  21.521  0.3159  0.5654  0.5304
    2AIB   HB23   30  21.108  19.867  21.492 -1.5948 -0.2479  0.3838
    2AIB      C   31  21.006  19.919  21.755  0.1415 -0.1145  0.4627
    2AIB      O   32  20.909  19.934  21.683 -0.1452  0.6102  0.0607
    3AIB      N   33  20.989  19.900  21.887 -0.0896  0.0608 -0.3711
    3AIB     HN   34  21.062  19.904  21.954 -0.3585 -1.4550  0.0344
    3AIB     CA   35  20.865  19.893  21.947  0.0717 -0.1319  0.4618
    3AIB    CB1   36  20.885  19.897  22.100  0.7611  0.0004 -0.2572
    3AIB   HB11   37  20.927  19.995  22.131 -1.2437  0.1012  2.4716
    3AIB   HB12   38  20.961  19.821  22.127  1.3607 -1.1391 -4.3985
    3AIB   HB13   39  20.801  19.878  22.171  1.6858 -1.7341  0.4539
    3AIB    CB2   40  20.793  19.762  21.915 -1.0843 -0.1633 -0.3052
    3AIB   HB21   41  20.767  19.755  21.807 -0.9478  0.1775 -0.3584
    3AIB   HB22   42  20.705  19.756  21.982  0.1532 -0.0520  1.4224
    3AIB   HB23   43  20.856  19.673  21.938  0.6748  0.9885 -0.3663
    3AIB      C   44  20.765  20.020  21.937 -0.3353  1.1411 -0.6401
    3AIB      O   45  20.642  20.003  21.930  0.3519  0.4122 -0.0458
    4AIB      N   46  20.823  20.141  21.935 -0.0626  0.1557  0.4858
    4AIB     HN   47  20.922  20.143  21.939 -0.0382 -0.8515  0.7107
    4AIB     CA   48  20.757  20.272  21.919 -0.1122  0.5411 -0.4876
    4AIB    CB1   49  20.873  20.381  21.923  0.2428  0.3854 -0.1334
    4AIB   HB11   50  20.842  20.481  21.886 -1.6550  1.2009  3.2316
    4AIB   HB12   51  20.947  20.347  21.847 -0.5533 -1.2843 -0.2073
    4AIB   HB13   52  20.906  20.402  22.027  0.7880  1.3899 -0.4960
    4AIB    CB2   53  20.666  20.296  22.041  0.5279  0.0226 -0.5043
    4AIB   HB21   54  20.581  20.226  22.029 -0.7675  1.2416  1.1780
    4AIB   HB22   55  20.641  20.404  22.036 -0.3486 -0.0271  1.9102
    4AIB   HB23   56  20.718  20.270  22.136 -2.1859  1.1953  1.4071
    4AIB      C   57  20.681  20.294  21.784  0.2085  0.4023 -0.2212
    4AIB      O   58  20.564  20.334  21.777  0.1944  0.7886  0.0095
    5AIB      N   59  20.762  20.269  21.674  0.4463  0.2816 -0.0856
    5AIB     HN   60  20.854  20.236  21.693  1.7743  2.3221 -2.2604
    5AIB     CA   61  20.725  20.262  21.534 -0.4376  0.0682 -0.0397
    5AIB    CB1   62  20.846  20.215  21.459  0.7747 -0.3317 -0.2236
    5AIB   HB11   63  20.814  20.211  21.352 -2.3449  0.2514  0.5888
    5AIB   HB12   64  20.881  20.113  21.486  1.3008  0.0228  0.4638
    5AIB   HB13   65  20.925  20.291  21.473  2.3738 -2.0339  0.3923
    5AIB    CB2   66  20.688  20.404  21.492 -0.2609  0.8250  0.2174
    5AIB   HB21   67  20.650  20.469  21.574  3.8509  1.9596  1.4714
    5AIB   HB22   68  20.629  20.402  21.398  0.6829  0.8172 -0.3921
    5AIB   HB23   69  20.783  20.455  21.465 -1.1105  1.6553 -1.3770
    5AIB      C   70  20.607  20.169  21.510 -0.2917  0.1730  0.3070
    5AIB      O   71  20.510  20.205  21.448  0.2311 -0.2833 -0.1178
    6AIB      N   72  20.623  20.048  21.551  0.3731  0.3974 -0.5678
    6AIB     HN   73  20.709  20.021  21.593 -0.0062  0.1937  0.1102
    6AIB     CA   74  20.521  19.944  21.535 -0.6533  0.1182 -0.1343
    6AIB    CB1   75  20.564  19.820  21.618 -0.9183  0.0620 -0.2854
    6AIB   HB11   76  20.657  19.786  21.567 -0.9207  0.1248 -0.3341
    6AIB   HB12   77  20.491  19.738  21.604  1.2259 -1.8942 -0.8857
    6AIB   HB13   78  20.588  19.850  21.722  0.6602  2.1361 -1.1814
    6AIB    CB2   79  20.497  19.911  21.387  0.0162  0.4225  0.7653
    6AIB   HB21   80  20.592  19.879  21.340 -0.5734  0.7021 -0.6909
    6AIB   HB22   81  20.466  20.006  21.338  0.7411  0.0084 -0.5323
    6AIB   HB23   82  20.421  19.831  21.374  0.7391  0.1931 -3.7088
    6AIB      C   83  20.383  19.990  21.599  0.2683 -0.0777  0.2705
    6AIB      O   84  20.269  19.986  21.545 -0.2592 -0.5505 -0.1661
    7AIB      N   85  20.390  20.040  21.729 -0.1029  0.0465  0.3346
    7AIB     HN   86  20.478  20.037  21.775  0.4766 -0.3123 -0.7636
    7AIB     CA   87  20.273  20.084  21.802  0.5479 -0.2189 -0.3673
    7AIB    CB1   88  20.324  20.129  21.942 -0.3975 -0.2385  0.0421
    7AIB   HB11   89  20.382  20.221  21.924  0.9610 -1.1952 -0.5711
    7AIB   HB12   90  20.390  20.054  21.991  0.6264  1.1884  0.9167
    7AIB   HB13   91  20.237  20.155  22.006  0.8330  1.0250  1.2632
    7AIB    CB2   92  20.170  19.968  21.825  0.3413  0.0478 -0.7953
    7AIB   HB21   93  20.090  19.994  21.898  0.6446 -1.4040  0.1100
    7AIB   HB22   94  20.226  19.877  21.858 -0.8134  0.0006  1.1873
    7AIB   HB23   95  20.113  19.942  21.733 -2.2166 -1.0430  0.9966
    7AIB      C   96  20.195  20.203  21.742  0.6014  0.6083  0.1420
    7AIB      O   97  20.072  20.213  21.755  1.2124 -0.6555  0.1544
    8AIB      N   98  20.262  20.296  21.679 -0.0980 -0.0075  0.7396
    8AIB     HN   99  20.362  20.290  21.678  0.0621  1.6837 -1.6071
    8AIB     CA  100  20.212  20.424  21.623  0.2430 -0.8316  0.3543
    8AIB    CB1  101  20.338  20.506  21.587  0.1950 -0.0120 -0.4251
    8AIB   HB11  102  20.406  20.475  21.505  0.8266 -0.4487  0.2495
    8AIB   HB12  103  20.409  20.501  21.673 -0.1631 -0.0075 -0.1303
    8AIB   HB13  104  20.302  20.611  21.577  0.6341  0.0504 -1.5154
    8AIB    CB2  105  20.127  20.503  21.724 -0.7364 -0.1107 -0.2515
    8AIB   HB21  106  20.118  20.599  21.669  1.0648 -0.3579 -1.0312
    8AIB   HB22  107  20.177  20.526  21.820 -1.3162 -0.4933  0.1544
    8AIB   HB23  108  20.031  20.447  21.727 -0.0564 -1.3322 -0.3608
    8AIB      C  109  20.135  20.403  21.488 -0.0610 -0.8155  0.0491
    8AIB      O  110  20.037  20.479  21.454 -0.2247 -0.3144 -0.1795
    9AIB      N  111  20.182  20.304  21.409 -0.0500  0.6104  0.1601
    9AIB     HN  112  20.268  20.258  21.430  0.2849 -0.2531 -2.5927
    9AIB     CA  113  20.120  20.257  21.283  0.9043  0.0696 -1.0221
    9AIB    CB1  114  20.218  20.153  21.231 -0.7561  0.1103 -0.0957
    9AIB   HB11  115  20.235  20.066  21.298  1.3449  0.7351  0.2242
    9AIB   HB12  116  20.313  20.208  21.215 -0.5664  0.1152  0.9921
    9AIB   HB13  117  20.185  20.108  21.134  0.6154  0.4079 -0.7348
    9AIB    CB2  118  20.109  20.364  21.182 -0.0039 -1.1023  0.7996
    9AIB   HB21  119  20.209  20.414  21.174 -1.0957  0.9218 -1.4936
    9AIB   HB22  120  20.040  20.449  21.200  0.1133 -0.7359 -0.4121
    9AIB   HB23  121  20.080  20.325  21.083 -0.9617 -1.2812  1.1378
    9AIB      C  122  19.981  20.188  21.300 -0.5597  0.1179 -0.1854
    9AIB      O  123  19.897  20.188  21.210  0.1851  0.2197 -0.1212
    9AIB     NT  124  19.955  20.138  21.418 -0.3860  0.0611  0.1596
    9AIB    HNT  125  20.028  20.135  21.486  1.3494  1.2940 -1.5201
    9AIB    CAT  126  19.824  20.089  21.455  0.2257  0.1351  0.0738
    9AIB    HT1  127  19.772  20.167  21.515  0.4135  0.1705  0.1890
    9AIB    HT2  128  19.822  19.998  21.519 -0.8929 -0.1340 -0.3230
    9AIB    HT3  129  19.760  20.066  21.367  0.1321  0.2692  0.1079
  42.09246  42.09246  42.09246
