Protein
   32
    1ACE   HH31    1   3.423   9.510  11.196 -0.6962  0.3413  0.0928
    1ACE    CH3    2   3.499   9.557  11.259  0.1585 -0.7491 -0.0904
    1ACE   HH32    3   3.585   9.567  11.194 -0.1484 -0.1658 -0.4163
    1ACE   HH33    4   3.515   9.496  11.348 -2.7213 -0.2793  0.8704
    1ACE      C    5   3.454   9.698  11.291  0.1774 -0.0558 -0.4888
    1ACE      O    6   3.496   9.792  11.224 -0.0066 -0.2631 -0.6151
    2ALA      N    7   3.374   9.712  11.398 -0.3972  0.2612 -0.4630
    2ALA      H    8   3.355   9.630  11.454 -2.3478  0.0297 -1.3586
    2ALA     CA    9   3.344   9.846  11.467 -0.8470  0.6164 -0.1004
    2ALA     HA   10   3.317   9.923  11.395  1.6193  2.7673  1.1226
    2ALA     CB   11   3.223   9.814  11.568 -0.7117  0.5288 -0.1606
    2ALA    HB1   12   3.251   9.731  11.633  1.6190  0.3388 -1.2807
    2ALA    HB2   13   3.200   9.899  11.632 -2.5244 -1.7031  2.3475
    2ALA    HB3   14   3.127   9.793  11.521 -1.0272  1.7761 -0.1335
    2ALA      C   15   3.472   9.906  11.536 -0.3143  0.3148  1.0002
    2ALA      O   16   3.473   9.922  11.654  0.1246  0.2856  0.5681
    3ALA      N   17   3.577   9.938  11.454  0.0667 -0.5422  0.2112
    3ALA      H   18   3.571   9.937  11.353  0.4062 -1.7044  0.1954
    3ALA     CA   19   3.716   9.974  11.502  0.1916  0.6263  0.6143
    3ALA     HA   20   3.766   9.877  11.505  1.0335  1.0260 -0.1445
    3ALA     CB   21   3.802  10.044  11.387  0.1295  0.3582 -0.5563
    3ALA    HB1   22   3.904  10.056  11.425  0.6373 -0.5065 -1.6154
    3ALA    HB2   23   3.810   9.963  11.314  0.7578 -0.2795  0.1983
    3ALA    HB3   24   3.745  10.129  11.350  0.6883  0.1925 -1.8562
    3ALA      C   25   3.736  10.048  11.634 -0.7528  1.0020  0.2961
    3ALA      O   26   3.815  10.001  11.722  0.3102  0.4825  0.3173
    4NME      N   27   3.668  10.161  11.644  0.3597  0.6006 -0.0726
    4NME      H   28   3.588  10.158  11.583 -0.0608 -1.5550  0.5011
    4NME    CH3   29   3.679  10.262  11.747 -0.3423 -0.3955 -0.4468
    4NME   HH31   30   3.604  10.340  11.736 -1.0391 -1.1027 -0.8821
    4NME   HH32   31   3.672  10.213  11.843  2.9073  0.8295  0.5673
    4NME   HH33   32   3.777  10.309  11.736  1.4334 -3.8223 -0.5540
  20.99041  20.99041  20.99041
