<<<<<<< HEAD
Protein
   42
    1ACE   HH31    1  11.166  19.172  15.176  1.7751 -0.4843 -1.0836
    1ACE    CH3    2  11.235  19.208  15.253 -0.1715  0.6141  0.2550
    1ACE   HH32    3  11.187  19.220  15.350  2.2808  0.3390  1.5749
    1ACE   HH33    4  11.302  19.290  15.227  1.1739 -0.0503  1.4897
    1ACE      C    5  11.320  19.079  15.263 -0.3984  0.8987 -0.6645
    1ACE      O    6  11.275  18.967  15.280 -0.9111  0.2131  0.0039
    2ALA      N    7  11.448  19.109  15.263  0.6065  0.3174 -0.5161
    2ALA      H    8  11.473  19.205  15.248  0.3447  0.3731 -0.6137
    2ALA     CA    9  11.551  19.011  15.293 -0.0482  0.3343 -0.1234
    2ALA     HA   10  11.644  19.053  15.257  0.7616  0.4635  1.9851
    2ALA     CB   11  11.575  18.995  15.440  1.0687 -0.5004  0.2208
    2ALA    HB1   12  11.662  18.930  15.451  2.1395  0.9850  0.9920
    2ALA    HB2   13  11.587  19.090  15.491  1.3767  0.6123 -1.8202
    2ALA    HB3   14  11.485  18.949  15.482  0.7662  1.3815  1.7908
    2ALA      C   15  11.537  18.870  15.219  0.0348 -0.5054 -0.2681
    2ALA      O   16  11.489  18.870  15.108 -0.0054 -0.4218 -0.1268
    3ALA      N   17  11.573  18.759  15.286  0.1157  0.2356  0.3082
    3ALA      H   18  11.630  18.774  15.369  0.5445  1.6464 -0.2278
    3ALA     CA   19  11.543  18.627  15.244 -0.3561 -0.3181  0.2222
    3ALA     HA   20  11.517  18.624  15.139  0.0237 -2.4171  0.1555
    3ALA     CB   21  11.675  18.550  15.262  0.0682  0.1069  0.0906
    3ALA    HB1   22  11.699  18.554  15.368 -1.4562 -1.9164  0.5781
    3ALA    HB2   23  11.653  18.445  15.244  0.9358 -0.6100  2.8164
    3ALA    HB3   24  11.755  18.583  15.195 -1.1481  1.4316 -0.7922
    3ALA      C   25  11.423  18.581  15.328  0.4870 -0.1093  0.0695
    3ALA      O   26  11.439  18.522  15.433  0.6600  0.1036  0.0895
    4ALA      N   27  11.306  18.641  15.294 -0.4278 -0.1175  0.4409
    4ALA      H   28  11.310  18.711  15.222  0.2250  1.0946  1.6292
    4ALA     CA   29  11.176  18.619  15.357 -0.1049  0.1669 -0.0178
    4ALA     HA   30  11.157  18.512  15.360  0.1180  0.1291 -0.0040
    4ALA     CB   31  11.173  18.687  15.497  0.5353 -0.1704  0.9404
    4ALA    HB1   32  11.070  18.686  15.534  0.2779  2.7694  0.5645
    4ALA    HB2   33  11.244  18.645  15.568  0.0314 -1.2859  0.7965
    4ALA    HB3   34  11.205  18.791  15.484  4.1185 -1.2779 -0.0858
    4ALA      C   35  11.066  18.671  15.259  0.2059 -0.6691 -0.3274
    4ALA      O   36  10.968  18.601  15.251 -0.1158 -0.0258  0.4074
    5NME      N   37  11.083  18.785  15.182  0.3193 -0.0536 -0.4211
    5NME      H   38  11.149  18.858  15.204 -1.1300  1.2596 -0.2812
    5NME    CH3   39  11.007  18.806  15.063  0.1978 -0.4998  0.5018
    5NME   HH31   40  11.034  18.743  14.978 -2.8655  1.4038 -2.1288
    5NME   HH32   41  10.906  18.773  15.085 -0.4253 -0.0765 -1.5937
    5NME   HH33   42  10.992  18.910  15.035  0.2644 -0.1434  1.7329
  20.91516  20.91516  20.91516
=======
Protein
   42
    1ACE   HH31    1   7.972   6.260  18.339  1.0501 -0.3529 -1.0395
    1ACE    CH3    2   8.032   6.247  18.429 -0.4467 -0.1346  0.0272
    1ACE   HH32    3   8.136   6.256  18.396 -0.7835  1.7997 -0.6802
    1ACE   HH33    4   8.013   6.145  18.464 -1.0462  0.9025  2.9593
    1ACE      C    5   8.010   6.353  18.534 -0.4811  0.3579  0.3406
    1ACE      O    6   8.084   6.450  18.531  0.1568 -0.6858  0.3173
    2ALA      N    7   7.909   6.336  18.617  0.2679  0.0411 -0.9698
    2ALA      H    8   7.857   6.251  18.604 -0.0037  0.1778 -0.7907
    2ALA     CA    9   7.865   6.426  18.726 -0.2912  0.1976  0.6932
    2ALA     HA   10   7.859   6.526  18.683 -0.1861  0.1367  0.5351
    2ALA     CB   11   7.716   6.371  18.758  0.2244  0.7715  0.3216
    2ALA    HB1   12   7.673   6.439  18.831 -0.0976  0.7788  0.1305
    2ALA    HB2   13   7.655   6.383  18.669 -2.1143 -0.2922  1.7001
    2ALA    HB3   14   7.732   6.271  18.797  0.3348  1.3696  1.8881
    2ALA      C   15   7.961   6.444  18.847 -0.3412 -0.3381 -0.2573
    2ALA      O   16   7.917   6.439  18.962 -0.0678 -0.2063 -0.1831
    3ALA      N   17   8.088   6.464  18.813 -0.3338 -0.5457 -0.2854
    3ALA      H   18   8.101   6.472  18.713 -0.6102 -2.1912 -0.4802
    3ALA     CA   19   8.201   6.467  18.908  0.3805  0.2726 -0.1074
    3ALA     HA   20   8.274   6.527  18.854  2.4780 -1.4315  0.6631
    3ALA     CB   21   8.182   6.537  19.041 -0.3860 -0.1855 -0.3189
    3ALA    HB1   22   8.150   6.641  19.036 -1.2315 -0.4049  0.4231
    3ALA    HB2   23   8.123   6.484  19.115 -0.8794  0.0917 -0.5108
    3ALA    HB3   24   8.281   6.544  19.088 -1.0320  0.2024  1.0137
    3ALA      C   25   8.286   6.338  18.913 -0.3112  0.5491 -0.1861
    3ALA      O   26   8.366   6.323  19.005 -0.4510  0.0653  0.1476
    4ALA      N   27   8.263   6.242  18.822 -0.1752 -0.1439 -0.5737
    4ALA      H   28   8.193   6.263  18.752 -0.5220  1.0098  0.0824
    4ALA     CA   29   8.331   6.121  18.803  0.2997 -0.4045  0.1686
    4ALA     HA   30   8.438   6.142  18.804  1.3498 -4.3921 -2.5525
    4ALA     CB   31   8.304   6.024  18.920 -0.0217  0.1746  0.3749
    4ALA    HB1   32   8.216   5.963  18.900  0.6001 -1.0470  1.2657
    4ALA    HB2   33   8.393   5.962  18.933  1.2860  2.0727  0.9025
    4ALA    HB3   34   8.282   6.068  19.017 -0.5905  0.3212  0.1823
    4ALA      C   35   8.286   6.067  18.664 -0.9577  0.6393  0.2070
    4ALA      O   36   8.167   6.069  18.630  0.0471 -0.3661 -0.0047
    5NME      N   37   8.382   6.022  18.581 -0.3842 -0.3441 -0.4412
    5NME      H   38   8.480   6.027  18.604 -0.0322 -0.3068 -1.8439
    5NME    CH3   39   8.348   5.970  18.447 -0.1988 -0.1874  0.2307
    5NME   HH31   40   8.286   5.880  18.441  0.4709 -0.5542 -1.7308
    5NME   HH32   41   8.285   6.052  18.413  1.5831  2.4596  2.8977
    5NME   HH33   42   8.431   5.954  18.378 -0.2498  0.1370  0.0893
  20.91516  20.91516  20.91516
>>>>>>> e505351e8895c44bcd67ad8436d05c0eaca14691
