Protein
   42
    1ACE   HH31    1   8.402   9.347   7.974 -0.6440  0.2459  0.0576
    1ACE    CH3    2   8.335   9.327   7.891 -0.2275  0.0769 -0.2512
    1ACE   HH32    3   8.272   9.410   7.860  0.1492  0.1699 -0.7819
    1ACE   HH33    4   8.271   9.246   7.927 -1.2060  0.9842  0.0967
    1ACE      C    5   8.416   9.295   7.772  0.0225 -0.1222 -0.0589
    1ACE      O    6   8.387   9.193   7.713 -0.2669  0.5724 -0.2519
    2ALA      N    7   8.517   9.366   7.737  0.7292 -0.0584  0.1282
    2ALA      H    8   8.539   9.446   7.796  1.9797  0.3866 -0.8698
    2ALA     CA    9   8.610   9.339   7.626  0.7188  0.3438  0.3972
    2ALA     HA   10   8.547   9.349   7.538 -3.1788  0.8425  3.0249
    2ALA     CB   11   8.724   9.445   7.630  1.0889 -0.1584 -0.4649
    2ALA    HB1   12   8.769   9.460   7.729 -0.5765  1.2520  0.1100
    2ALA    HB2   13   8.808   9.424   7.563 -0.2584  0.6890 -2.4604
    2ALA    HB3   14   8.691   9.544   7.602  2.8389  0.4683 -0.4384
    2ALA      C   15   8.665   9.192   7.634 -0.0125 -0.3350  0.7276
    2ALA      O   16   8.757   9.166   7.705  0.1431 -0.0653 -0.2454
    3ALA      N   17   8.614   9.099   7.555 -0.4321  0.5063 -0.1911
    3ALA      H   18   8.640   9.004   7.581 -0.4208 -0.0087 -1.9246
    3ALA     CA   19   8.524   9.112   7.442  0.4061  0.7371 -0.4963
    3ALA     HA   20   8.451   9.190   7.460 -2.3323 -1.6291 -0.5621
    3ALA     CB   21   8.607   9.149   7.318  0.5906 -0.8091 -0.2667
    3ALA    HB1   22   8.666   9.064   7.281  1.0296 -0.1718 -1.0677
    3ALA    HB2   23   8.549   9.194   7.237  2.7048  1.3332 -0.6695
    3ALA    HB3   24   8.682   9.222   7.346 -1.1315  1.2729 -0.8924
    3ALA      C   25   8.425   9.000   7.437  0.0591 -0.4594 -0.1241
    3ALA      O   26   8.404   8.950   7.328  0.0368  1.1318  0.3060
    4ALA      N   27   8.371   8.967   7.552 -0.1433  0.0118  0.0761
    4ALA      H   28   8.420   9.008   7.631  2.4304 -1.3532 -0.7230
    4ALA     CA   29   8.272   8.863   7.571 -0.3242  0.2482  0.7348
    4ALA     HA   30   8.228   8.856   7.472  0.6823 -2.0946  0.3766
    4ALA     CB   31   8.342   8.728   7.594  0.6541 -0.0639 -0.0213
    4ALA    HB1   32   8.343   8.693   7.698 -0.5805 -0.7949 -0.2462
    4ALA    HB2   33   8.291   8.642   7.551  0.6210 -0.9045  1.6155
    4ALA    HB3   34   8.445   8.734   7.558  0.7001 -0.8795 -0.0461
    4ALA      C   35   8.160   8.891   7.667  0.8531 -0.8157 -0.2150
    4ALA      O   36   8.084   8.800   7.698 -0.6804 -0.0403 -0.6056
    5NME      N   37   8.152   9.017   7.720  0.3660 -0.2593  0.2913
    5NME      H   38   8.219   9.084   7.685 -0.4907  1.2075  1.3167
    5NME    CH3   39   8.043   9.063   7.805 -0.2602  0.5550  0.1868
    5NME   HH31   40   7.983   8.976   7.830 -0.2639  0.9431  1.6041
    5NME   HH32   41   8.076   9.117   7.894  0.4214  0.1439  0.1905
    5NME   HH33   42   7.968   9.129   7.760 -2.9415 -1.2238  1.7888
  20.91516  20.91516  20.91516
