Protein
   32
    1ACE   HH31    1   8.834  17.698  13.394  1.1329 -0.5171  2.4379
    1ACE    CH3    2   8.866  17.594  13.393  0.0364 -0.8952  0.0244
    1ACE   HH32    3   8.931  17.593  13.481  0.5856 -2.2369 -0.3691
    1ACE   HH33    4   8.905  17.563  13.296  2.6718 -0.8039  0.9671
    1ACE      C    5   8.746  17.515  13.425  0.0266 -0.4146  1.1779
    1ACE      O    6   8.638  17.568  13.439 -0.4582 -0.0298  0.0822
    2ALA      N    7   8.759  17.383  13.443  0.3737  0.0391  0.1531
    2ALA      H    8   8.850  17.351  13.414  1.3921  2.0762  0.9019
    2ALA     CA    9   8.651  17.292  13.480 -0.3927 -0.0523  0.1284
    2ALA     HA   10   8.582  17.279  13.396 -1.0154  0.2658  0.5798
    2ALA     CB   11   8.706  17.155  13.520  0.0754 -0.1398 -0.1928
    2ALA    HB1   12   8.770  17.104  13.448  1.3656 -2.3239  2.3053
    2ALA    HB2   13   8.769  17.163  13.609  0.6279  3.2978 -0.7577
    2ALA    HB3   14   8.624  17.087  13.545 -0.7123  0.6161 -0.6868
    2ALA      C   15   8.566  17.342  13.601  0.8746 -0.0104 -0.2965
    2ALA      O   16   8.444  17.326  13.595  0.3688  0.1316 -0.2344
    3ALA      N   17   8.636  17.389  13.704 -0.4412 -0.2075  0.8797
    3ALA      H   18   8.737  17.400  13.701 -0.5798  2.1973  1.8160
    3ALA     CA   19   8.575  17.457  13.812  1.1264 -0.1167  0.0853
    3ALA     HA   20   8.481  17.408  13.838  0.9642  0.3660  0.4546
    3ALA     CB   21   8.658  17.449  13.939  0.4001  0.1862  0.2311
    3ALA    HB1   22   8.676  17.344  13.961 -1.4590 -0.0628  0.6701
    3ALA    HB2   23   8.747  17.512  13.943 -0.2591  1.0943  1.5790
    3ALA    HB3   24   8.605  17.497  14.022  0.2441  1.4298 -0.5613
    3ALA      C   25   8.534  17.598  13.769  0.0839  0.3744  0.7781
    3ALA      O   26   8.622  17.684  13.763  0.1978 -0.2013  0.1495
    4NME      N   27   8.407  17.615  13.729 -0.3176  0.2498 -0.1354
    4NME      H   28   8.353  17.529  13.721  0.7458 -0.3870 -0.6659
    4NME    CH3   29   8.341  17.739  13.696  0.4400  0.1045 -0.2639
    4NME   HH31   30   8.328  17.798  13.786  1.8553  1.2497 -0.7742
    4NME   HH32   31   8.384  17.805  13.620 -2.6559  1.5001 -0.9974
    4NME   HH33   32   8.247  17.708  13.650  1.0887 -0.3176 -1.3393
  20.99041  20.99041  20.99041
