Protein
   32
    1ACE   HH31    1  11.891  13.074  15.186 -1.0282 -0.3648  1.0760
    1ACE    CH3    2  11.798  13.084  15.129 -0.1125  0.5771 -0.2988
    1ACE   HH32    3  11.722  13.101  15.205  1.0805  0.1935  1.0511
    1ACE   HH33    4  11.789  12.991  15.072  0.3990 -0.0583  0.6153
    1ACE      C    5  11.816  13.202  15.034 -0.6918  0.4774 -0.4224
    1ACE      O    6  11.913  13.270  15.021 -0.5960 -0.5049  0.1193
    2ALA      N    7  11.711  13.229  14.966  1.1067  0.0715  0.5657
    2ALA      H    8  11.630  13.169  14.967 -0.0608  1.5890 -0.3312
    2ALA     CA    9  11.708  13.331  14.860  0.0465  0.0485  0.3511
    2ALA     HA   10  11.762  13.422  14.886  1.1853 -0.6843  0.5647
    2ALA     CB   11  11.769  13.275  14.721  0.7200  0.3276 -0.3333
    2ALA    HB1   12  11.865  13.226  14.739 -0.4148 -2.0350 -0.4483
    2ALA    HB2   13  11.707  13.198  14.677  1.5277  0.1088 -1.1313
    2ALA    HB3   14  11.775  13.358  14.650 -0.7047  2.8467  2.3059
    2ALA      C   15  11.559  13.372  14.853 -0.1161 -0.1535  0.3720
    2ALA      O   16  11.478  13.281  14.840  0.0887  0.2517 -0.2316
    3ALA      N   17  11.524  13.499  14.857  0.5373 -0.2597  0.1477
    3ALA      H   18  11.597  13.567  14.872 -1.6990  1.9837  1.7849
    3ALA     CA   19  11.385  13.540  14.847 -0.2205 -1.3631  0.4050
    3ALA     HA   20  11.332  13.469  14.783  1.4866  0.1635 -2.9678
    3ALA     CB   21  11.316  13.554  14.986  0.5918  0.5293  0.3063
    3ALA    HB1   22  11.208  13.564  14.982  0.4902  0.2541  1.7720
    3ALA    HB2   23  11.340  13.462  15.041  0.1232  0.0988 -0.1993
    3ALA    HB3   24  11.354  13.637  15.045 -0.6678 -0.3672  2.4842
    3ALA      C   25  11.364  13.679  14.767 -0.5819  0.1015 -0.0007
    3ALA      O   26  11.324  13.783  14.820  0.2497 -0.5494  0.2450
    4NME      N   27  11.415  13.678  14.645  0.0360 -0.3588 -0.9364
    4NME      H   28  11.465  13.594  14.618  0.2218 -0.4506 -0.3159
    4NME    CH3   29  11.396  13.791  14.549 -0.4947 -0.3365  0.0769
    4NME   HH31   30  11.479  13.860  14.559  0.7986 -1.9191  0.8313
    4NME   HH32   31  11.395  13.744  14.450 -0.1475 -0.3996  0.1011
    4NME   HH33   32  11.304  13.849  14.561 -0.5034 -0.4177  0.4844
  20.99041  20.99041  20.99041
