Protein
   22
    1ACE   HH31    1   9.956   1.652   7.093 -0.3766 -0.9201 -3.4160
    1ACE    CH3    2   9.866   1.705   7.126  0.6741 -0.6502 -0.7256
    1ACE   HH32    3   9.789   1.687   7.051  1.2505 -0.6545 -1.3415
    1ACE   HH33    4   9.882   1.810   7.151  1.1994 -0.8803 -0.0687
    1ACE      C    5   9.823   1.640   7.260 -0.1198  0.6819  0.0705
    1ACE      O    6   9.708   1.628   7.294 -0.1340 -0.3584 -0.1790
    2ALA      N    7   9.924   1.604   7.338  0.1787 -0.6008 -0.1478
    2ALA      H    8  10.021   1.617   7.313 -0.0667 -1.3549 -1.5907
    2ALA     CA    9   9.902   1.512   7.448  0.1335  0.7925  0.0181
    2ALA     HA   10   9.817   1.451   7.419 -0.4996  1.5890  0.1834
    2ALA     CB   11  10.028   1.422   7.470  0.6003  0.4109  0.0906
    2ALA    HB1   12   9.999   1.337   7.531  2.4784  0.7289  1.5191
    2ALA    HB2   13  10.057   1.381   7.373 -1.1933 -0.3068 -0.1758
    2ALA    HB3   14  10.103   1.487   7.514 -0.1474  1.0581  0.4422
    2ALA      C   15   9.855   1.592   7.576  0.2421  0.4483 -0.5760
    2ALA      O   16   9.811   1.528   7.666  0.6397 -0.2748  0.1786
    3NME      N   17   9.888   1.722   7.594  0.2812  0.8925 -0.2577
    3NME      H   18   9.921   1.768   7.511 -0.0167  1.3742 -0.1148
    3NME    CH3   19   9.869   1.795   7.716 -0.3274 -0.0484  0.0341
    3NME   HH31   20   9.945   1.753   7.781 -0.6504 -2.6261 -1.1357
    3NME   HH32   21   9.889   1.901   7.701 -0.9484  0.2388  1.0743
    3NME   HH33   22   9.765   1.779   7.745 -0.2575  1.2284  1.0799
  10.72160  10.72160  10.72160
