Protein
   42
    1ACE   HH31    1   8.509   9.050   5.667 -0.6549 -0.3822 -3.0508
    1ACE    CH3    2   8.611   9.015   5.659 -0.1062  0.1595  0.2563
    1ACE   HH32    3   8.668   9.084   5.721 -1.8278  1.1610  0.7543
    1ACE   HH33    4   8.631   9.020   5.552 -2.4048  1.6447 -0.1508
    1ACE      C    5   8.624   8.870   5.713 -0.2760 -0.3876 -0.2024
    1ACE      O    6   8.544   8.833   5.794 -0.0065 -0.0890  0.1124
    2ALA      N    7   8.729   8.798   5.666  0.1667  0.3814 -0.2474
    2ALA      H    8   8.794   8.838   5.600  0.8379 -0.6821 -0.2802
    2ALA     CA    9   8.752   8.662   5.721 -0.3039  0.3679 -0.1763
    2ALA     HA   10   8.839   8.622   5.668 -0.1872  1.2185 -0.6497
    2ALA     CB   11   8.806   8.659   5.871 -0.1526 -0.4677  0.3231
    2ALA    HB1   12   8.895   8.721   5.884  0.6417 -1.7059  1.0450
    2ALA    HB2   13   8.731   8.708   5.932 -0.9008 -3.9686  2.5187
    2ALA    HB3   14   8.822   8.559   5.912  2.4626 -0.1525  0.2651
    2ALA      C   15   8.646   8.563   5.678  0.5030  0.1303  0.7346
    2ALA      O   16   8.663   8.492   5.582 -0.4895 -0.1091  0.4400
    3ALA      N   17   8.539   8.562   5.752  0.4277  0.0183  0.2068
    3ALA      H   18   8.531   8.630   5.827 -0.6803 -0.3816  0.4608
    3ALA     CA   19   8.422   8.483   5.722  0.0534  0.3690 -0.5029
    3ALA     HA   20   8.452   8.413   5.644 -0.4139  0.6461 -0.9294
    3ALA     CB   21   8.386   8.406   5.847  0.6703 -0.3948 -0.7488
    3ALA    HB1   22   8.288   8.361   5.831  0.7710 -0.4556 -1.1769
    3ALA    HB2   23   8.451   8.322   5.870 -0.3609 -0.6640  1.5251
    3ALA    HB3   24   8.359   8.475   5.928  0.3541 -0.5687 -0.7035
    3ALA      C   25   8.299   8.570   5.672 -0.2614  0.0382  0.2376
    3ALA      O   26   8.212   8.520   5.603 -0.6214  0.0547 -0.5297
    4ALA      N   27   8.298   8.702   5.702 -0.4983 -0.1946  0.0030
    4ALA      H   28   8.370   8.737   5.763  0.2390 -1.1935 -0.2703
    4ALA     CA   29   8.198   8.798   5.654  0.2594 -0.2315 -0.1306
    4ALA     HA   30   8.097   8.760   5.667 -0.0225  0.6560  0.3175
    4ALA     CB   31   8.211   8.910   5.758 -0.1997 -0.4086  0.6840
    4ALA    HB1   32   8.307   8.960   5.748 -1.2943  1.5307 -0.6692
    4ALA    HB2   33   8.134   8.987   5.746 -0.1386 -0.6951 -2.2079
    4ALA    HB3   34   8.203   8.857   5.853 -0.8585 -1.3653  0.1147
    4ALA      C   35   8.235   8.843   5.506 -0.5313 -0.0879 -0.5933
    4ALA      O   36   8.312   8.940   5.471  0.1320  0.2614  0.0965
    5NME      N   37   8.179   8.776   5.409  0.7360 -0.2448  0.0089
    5NME      H   38   8.105   8.710   5.426 -0.3730  1.0266  0.2114
    5NME    CH3   39   8.229   8.772   5.272  0.7147  0.5494 -0.0529
    5NME   HH31   40   8.326   8.723   5.270  0.3604 -0.3540  1.9699
    5NME   HH32   41   8.172   8.710   5.203  0.7549 -0.0438  0.4331
    5NME   HH33   42   8.231   8.872   5.230 -3.6473  0.5482 -0.7952
  20.91516  20.91516  20.91516
