Protein
   60
    1ACE   HH31    1  21.355  22.251  20.248 -1.2709 -2.1305 -1.9413
    1ACE    CH3    2  21.251  22.283  20.262 -0.2990  0.4411  0.2400
    1ACE   HH32    3  21.222  22.278  20.367  1.3718  1.8603  0.8415
    1ACE   HH33    4  21.225  22.382  20.222 -1.5012  0.4152  0.9008
    1ACE      C    5  21.180  22.177  20.173  0.1279 -0.2193 -0.2729
    1ACE      O    6  21.226  22.146  20.068  0.3330 -0.0922 -1.0936
    2TRP      N    7  21.056  22.130  20.208 -0.9343 -0.8995 -0.3357
    2TRP      H    8  21.013  22.062  20.146 -2.4987  1.2603 -1.7410
    2TRP     CA    9  20.970  22.185  20.316  0.8389 -0.6187 -0.2703
    2TRP     HA   10  21.024  22.205  20.409 -1.6875  0.9041  0.9895
    2TRP     CB   11  20.910  22.321  20.271 -0.0018  0.0355  0.5063
    2TRP    HB1   12  20.861  22.309  20.175  0.5467  1.8191 -0.0362
    2TRP    HB2   13  20.984  22.400  20.259  0.2641 -0.1296  1.0533
    2TRP     CG   14  20.803  22.368  20.360  0.0872 -0.0661  0.2753
    2TRP    CD1   15  20.672  22.368  20.341  0.3342 -0.2439  0.1945
    2TRP    HD1   16  20.617  22.331  20.256 -1.0344 -2.0264  1.7547
    2TRP    NE1   17  20.614  22.418  20.456 -0.0135  0.4670  0.4916
    2TRP    HE1   18  20.514  22.411  20.460 -0.0585 -4.2733 -1.4189
    2TRP    CE2   19  20.708  22.456  20.549 -0.5731 -0.3692 -0.2385
    2TRP    CZ2   20  20.702  22.504  20.681  0.0521  0.2726  0.8778
    2TRP    HZ2   21  20.603  22.523  20.721  0.4469  0.4987  1.7528
    2TRP    CH2   22  20.819  22.544  20.748 -0.2353  0.9320  0.4753
    2TRP    HH2   23  20.810  22.584  20.848 -2.8706 -0.3034  0.8276
    2TRP    CZ3   24  20.946  22.512  20.689 -1.1743  0.4073  0.1136
    2TRP    HZ3   25  21.040  22.528  20.739 -1.5509  1.1265  0.6161
    2TRP    CE3   26  20.952  22.448  20.565 -0.0868 -0.1883  0.6627
    2TRP    HE3   27  21.047  22.424  20.520  0.6952 -0.3123  2.3190
    2TRP    CD2   28  20.832  22.432  20.491 -0.6525  0.0928  0.8965
    2TRP      C   29  20.855  22.086  20.343 -0.6158  1.1074 -0.5066
    2TRP      O   30  20.802  22.026  20.249 -0.0925 -0.2604 -0.1795
    3TRP      N   31  20.810  22.056  20.468 -0.2443  0.0953 -0.2038
    3TRP      H   32  20.731  21.994  20.479 -2.8868  3.4011  1.3776
    3TRP     CA   33  20.867  22.094  20.599  0.7461 -0.2492 -0.1041
    3TRP     HA   34  20.906  22.196  20.605 -0.1214  0.0605  0.5235
    3TRP     CB   35  20.977  21.995  20.644 -0.1194  0.0932  0.9858
    3TRP    HB1   36  21.012  22.038  20.738 -2.4121  2.7313  0.7521
    3TRP    HB2   37  20.943  21.894  20.669  1.7396 -0.6134  0.8733
    3TRP     CG   38  21.098  21.990  20.565 -0.3697  0.1597  0.2385
    3TRP    CD1   39  21.115  21.921  20.452  0.3383 -0.1462  0.0686
    3TRP    HD1   40  21.040  21.856  20.409  1.4889 -1.3088 -0.2512
    3TRP    NE1   41  21.246  21.942  20.407 -0.1446  0.0075 -0.8212
    3TRP    HE1   42  21.271  21.909  20.315 -0.4874 -0.8469 -0.6147
    3TRP    CE2   43  21.317  22.030  20.476  0.0759 -0.0049 -0.1181
    3TRP    CZ2   44  21.447  22.086  20.466  0.3467  0.1493 -0.5701
    3TRP    HZ2   45  21.513  22.055  20.386 -1.5054 -3.1990 -0.9343
    3TRP    CH2   46  21.475  22.188  20.558 -0.1906 -0.7676  0.0154
    3TRP    HH2   47  21.567  22.243  20.547 -0.7557 -0.1047 -1.8481
    3TRP    CZ3   48  21.385  22.226  20.653 -0.0105  0.1032  0.0525
    3TRP    HZ3   49  21.405  22.315  20.710 -1.2851 -0.0412  0.7626
    3TRP    CE3   50  21.259  22.160  20.672 -0.4867  0.5934 -0.1530
    3TRP    HE3   51  21.194  22.191  20.752  0.7842  0.1149  1.1020
    3TRP    CD2   52  21.222  22.061  20.584 -0.3188  0.1251  0.5832
    3TRP      C   53  20.747  22.091  20.702 -0.4218  0.4003 -0.1252
    3TRP      O   54  20.673  21.994  20.711  0.2484 -0.3185 -0.0015
    4NME      N   55  20.732  22.201  20.778  0.0647  1.0076  0.4763
    4NME      H   56  20.799  22.276  20.766 -0.5513  1.6007  0.6573
    4NME    CH3   57  20.627  22.230  20.872  0.1261 -0.1705 -0.1017
    4NME   HH31   58  20.542  22.283  20.829 -0.8293 -1.2589  0.3994
    4NME   HH32   59  20.596  22.139  20.922 -0.0613  0.5401  1.1096
    4NME   HH33   60  20.676  22.292  20.947 -0.1263  0.6603 -0.6149
  41.12396  41.12396  41.12396
