Protein
   22
    1ACE   HH31    1   2.480   2.376   3.402  0.0262 -1.0760 -0.8300
    1ACE    CH3    2   2.473   2.470   3.348 -0.5036 -0.1430  0.8397
    1ACE   HH32    3   2.555   2.498   3.282 -1.4214  2.4545  0.6758
    1ACE   HH33    4   2.456   2.558   3.411  1.2813  1.0562 -0.2730
    1ACE      C    5   2.343   2.464   3.262 -0.2984 -0.0758  0.0341
    1ACE      O    6   2.246   2.513   3.312 -0.0941 -0.5279  0.3446
    2ALA      N    7   2.352   2.379   3.155 -0.1250  0.2849  0.1434
    2ALA      H    8   2.441   2.342   3.126 -0.4616 -0.0594 -0.4486
    2ALA     CA    9   2.247   2.360   3.057  0.1187 -0.2541  0.2110
    2ALA     HA   10   2.156   2.332   3.111 -0.6262  2.3541  0.4551
    2ALA     CB   11   2.208   2.491   2.997  0.0109 -0.4182 -0.0712
    2ALA    HB1   12   2.295   2.546   2.961 -0.0212 -1.6941 -2.3337
    2ALA    HB2   13   2.131   2.476   2.922 -1.0341 -2.9111  1.3631
    2ALA    HB3   14   2.164   2.560   3.069  0.4174 -2.1300  1.8975
    2ALA      C   15   2.288   2.251   2.949  0.4476  0.5838 -0.2584
    2ALA      O   16   2.291   2.267   2.825  1.3254  0.2113  0.2018
    3NME      N   17   2.334   2.130   3.003 -0.2165  0.0969  0.4975
    3NME      H   18   2.350   2.125   3.103  0.9166  0.6973  0.3631
    3NME    CH3   19   2.401   2.032   2.919 -0.4909  0.0989  0.0902
    3NME   HH31   20   2.342   1.942   2.902  1.4602 -1.0524 -0.8016
    3NME   HH32   21   2.420   2.073   2.820 -4.0657 -1.5172 -1.4619
    3NME   HH33   22   2.498   2.004   2.959 -0.6390  1.6597  1.6966
  10.72160  10.72160  10.72160
