Protein
   42
    1ACE   HH31    1   9.664  10.869  14.409 -2.5494 -3.1343 -1.5204
    1ACE    CH3    2   9.751  10.828  14.356  0.0195 -0.0382 -0.1199
    1ACE   HH32    3   9.803  10.913  14.313  0.5352  0.6673  1.7961
    1ACE   HH33    4   9.715  10.752  14.286 -0.5195 -0.0174  0.1278
    1ACE      C    5   9.851  10.770  14.456  0.0450 -0.3274  0.3019
    1ACE      O    6   9.959  10.827  14.462 -0.4181  0.6435 -0.2045
    2ALA      N    7   9.812  10.670  14.529  0.1686 -0.1492 -0.3745
    2ALA      H    8   9.728  10.623  14.499 -0.5865  1.1661 -0.4437
    2ALA     CA    9   9.890  10.611  14.638 -0.7070  0.5976 -0.1563
    2ALA     HA   10   9.987  10.661  14.639 -0.5423  0.2816  1.0864
    2ALA     CB   11   9.820  10.655  14.769  0.2144 -0.3360  0.2709
    2ALA    HB1   12   9.875  10.614  14.854  0.0710  0.7457  0.8961
    2ALA    HB2   13   9.833  10.763  14.776  0.0392 -0.3657  1.3704
    2ALA    HB3   14   9.716  10.624  14.759 -0.3371  1.0026  1.5303
    2ALA      C   15   9.914  10.457  14.609 -0.1228  0.1163 -0.2311
    2ALA      O   16   9.858  10.375  14.682  0.1635 -0.1080  0.1233
    3ALA      N   17   9.997  10.414  14.518  0.1819 -0.4096 -0.4372
    3ALA      H   18  10.026  10.317  14.520 -0.2304 -0.5263  0.2984
    3ALA     CA   19  10.050  10.493  14.402  0.9115 -0.2004  0.2303
    3ALA     HA   20  10.072  10.595  14.431  5.3871 -0.5967 -1.0945
    3ALA     CB   21  10.194  10.446  14.383 -0.0782 -0.1940 -0.0159
    3ALA    HB1   22  10.243  10.517  14.316  0.9188 -2.9644 -2.3760
    3ALA    HB2   23  10.244  10.442  14.480 -0.1093 -0.2707 -0.0023
    3ALA    HB3   24  10.187  10.349  14.333  1.2475 -1.2674  1.7940
    3ALA      C   25   9.958  10.486  14.277  0.5639 -0.3275 -0.3891
    3ALA      O   26   9.867  10.407  14.266  0.2380 -0.5167  0.4097
    4ALA      N   27   9.992  10.562  14.174  0.4472 -0.0439  0.0302
    4ALA      H   28  10.058  10.639  14.179 -2.7926  3.0647 -0.8049
    4ALA     CA   29   9.928  10.554  14.040  0.2591 -0.3910  0.4517
    4ALA     HA   30   9.892  10.454  14.017 -1.1746  0.3226 -0.5370
    4ALA     CB   31   9.806  10.645  14.035 -0.0459 -0.2017 -0.1720
    4ALA    HB1   32   9.835  10.749  14.049  0.1118 -0.0984 -1.1648
    4ALA    HB2   33   9.755  10.626  13.940  0.5189  1.9586 -0.9798
    4ALA    HB3   34   9.736  10.611  14.112  1.9842 -0.3802  1.6635
    4ALA      C   35  10.031  10.599  13.943 -0.6537  0.0383  0.4386
    4ALA      O   36  10.136  10.658  13.970  0.2718 -0.0368 -0.1619
    5NME      N   37  10.002  10.573  13.813  0.7680 -0.2429 -0.5244
    5NME      H   38   9.916  10.527  13.784  0.3420  0.5745 -0.5767
    5NME    CH3   39  10.106  10.598  13.710  0.5779 -0.1359  0.1098
    5NME   HH31   40  10.195  10.542  13.737  0.7823  0.9076  1.7372
    5NME   HH32   41  10.076  10.548  13.618 -1.1360 -1.0901  1.1171
    5NME   HH33   42  10.122  10.704  13.691 -1.6465  0.1893 -0.3154
  20.91516  20.91516  20.91516
