Protein
   32
    1ACE   HH31    1   8.038   6.900   6.513 -0.2719  0.0969 -0.3327
    1ACE    CH3    2   8.048   6.950   6.609 -0.3165  0.0976 -0.3271
    1ACE   HH32    3   8.145   6.938   6.656 -0.5020  0.7219  0.2384
    1ACE   HH33    4   7.971   6.933   6.684 -1.8121  0.7666 -1.6474
    1ACE      C    5   8.037   7.087   6.554 -0.2245 -0.2780 -0.4742
    1ACE      O    6   7.952   7.163   6.583  0.1952 -0.4296 -0.0774
    2ALA      N    7   8.121   7.115   6.455 -0.6922  0.0449 -0.2253
    2ALA      H    8   8.177   7.040   6.416 -1.3430  0.1778 -1.4726
    2ALA     CA    9   8.123   7.235   6.370 -0.1593 -0.3250 -0.7962
    2ALA     HA   10   8.111   7.321   6.435 -1.1369 -1.5812  0.7794
    2ALA     CB   11   8.263   7.249   6.305  0.7093  0.2394  0.6086
    2ALA    HB1   12   8.279   7.342   6.250 -0.0108 -0.6060 -1.1142
    2ALA    HB2   13   8.340   7.242   6.381  1.8765  0.8405 -0.4790
    2ALA    HB3   14   8.272   7.169   6.231  0.4513  0.4629  0.3297
    2ALA      C   15   8.006   7.258   6.270 -0.1615 -0.4659 -0.2644
    2ALA      O   16   8.021   7.338   6.177  0.2179 -0.6026  0.4715
    3ALA      N   17   7.885   7.195   6.293 -0.0182 -0.7570 -0.2416
    3ALA      H   18   7.868   7.164   6.388  0.4736  0.5545  0.2947
    3ALA     CA   19   7.778   7.182   6.197  0.3704  1.0395 -0.1021
    3ALA     HA   20   7.701   7.113   6.232 -0.6218  2.3730  0.4340
    3ALA     CB   21   7.708   7.318   6.185  0.5239 -0.1876  0.5508
    3ALA    HB1   22   7.771   7.388   6.130  0.7534 -1.0994 -0.3831
    3ALA    HB2   23   7.615   7.300   6.131  1.1154 -3.0219  0.3037
    3ALA    HB3   24   7.680   7.347   6.286  1.3701 -1.7612  1.2729
    3ALA      C   25   7.834   7.122   6.058  0.1441 -0.2778  0.0737
    3ALA      O   26   7.872   7.007   6.052  0.5428 -0.3228 -0.3832
    4NME      N   27   7.822   7.200   5.945  0.2968  0.1090 -0.0637
    4NME      H   28   7.790   7.294   5.955  0.8402  0.2650  0.2675
    4NME    CH3   29   7.894   7.155   5.817  0.1272  0.1105  0.0773
    4NME   HH31   30   7.911   7.246   5.760  0.3625 -0.7703 -1.2972
    4NME   HH32   31   7.996   7.120   5.833 -0.9699 -3.4954  0.0808
    4NME   HH33   32   7.842   7.076   5.764 -0.2852  1.1690 -1.1218
  20.99041  20.99041  20.99041
