Protein
   32
    1ACE   HH31    1   9.063   7.330  16.125 -2.1176  1.8998 -0.7426
    1ACE    CH3    2   9.125   7.366  16.043  0.6715 -0.7421 -0.0203
    1ACE   HH32    3   9.159   7.286  15.978  1.3693  0.0870 -0.7125
    1ACE   HH33    4   9.213   7.420  16.079 -0.2294  0.2731  0.7170
    1ACE      C    5   9.052   7.463  15.953  0.2333  0.2823  0.1099
    1ACE      O    6   9.006   7.425  15.849 -0.2131 -0.2572  0.6046
    2ALA      N    7   9.032   7.583  16.002 -0.1457 -0.5359  0.1766
    2ALA      H    8   9.077   7.596  16.092  2.1940  0.9430 -1.0677
    2ALA     CA    9   8.944   7.688  15.960 -0.0801 -0.6873  0.6017
    2ALA     HA   10   8.877   7.707  16.044  0.5149  2.6102  0.4782
    2ALA     CB   11   9.026   7.821  15.951 -0.5880  0.0043  0.3094
    2ALA    HB1   12   9.097   7.828  15.868 -2.8125  0.6776 -1.6548
    2ALA    HB2   13   8.955   7.904  15.952  0.2268  0.7727  3.1770
    2ALA    HB3   14   9.087   7.839  16.039  1.1016  0.9239 -0.9955
    2ALA      C   15   8.843   7.667  15.843  0.8340 -0.6045  0.1571
    2ALA      O   16   8.717   7.674  15.866 -0.3925  0.3858  0.4096
    3ALA      N   17   8.896   7.648  15.727  0.2431 -0.3324  0.4665
    3ALA      H   18   8.995   7.663  15.716  0.0829  0.2336 -0.3281
    3ALA     CA   19   8.829   7.610  15.600  0.5242 -0.6563  0.2806
    3ALA     HA   20   8.745   7.551  15.635  1.0217 -0.4685  1.8581
    3ALA     CB   21   8.784   7.745  15.538  0.8863  0.4369 -0.4693
    3ALA    HB1   22   8.868   7.814  15.533 -0.5727  2.2337 -1.4342
    3ALA    HB2   23   8.732   7.727  15.443  1.2676  1.7416 -0.9529
    3ALA    HB3   24   8.705   7.786  15.601  0.1656 -0.3725 -0.8357
    3ALA      C   25   8.906   7.509  15.508  0.1641 -0.1323  0.0294
    3ALA      O   26   8.905   7.518  15.386  0.4008 -0.1585 -0.5678
    4NME      N   27   8.974   7.412  15.574 -0.1361  0.3749  0.4737
    4NME      H   28   8.973   7.414  15.675  1.8207 -1.4174  0.5991
    4NME    CH3   29   9.052   7.307  15.519  0.4343 -0.1076 -0.5782
    4NME   HH31   30   9.118   7.280  15.602 -2.0851  0.9852  1.9467
    4NME   HH32   31   8.989   7.221  15.498 -3.7921  2.2601  1.3086
    4NME   HH33   32   9.096   7.339  15.425  0.7421 -0.7106 -0.6487
  20.99041  20.99041  20.99041
