Protein
   32
    1ACE   HH31    1  15.442   6.853   5.880  3.0643 -1.8910 -0.9803
    1ACE    CH3    2  15.387   6.829   5.789 -0.4142  0.1784  0.3891
    1ACE   HH32    3  15.299   6.891   5.776 -1.1752 -1.2309 -1.7071
    1ACE   HH33    4  15.357   6.724   5.786 -0.0621  0.0637 -2.1008
    1ACE      C    5  15.477   6.850   5.674 -0.9889  0.4582 -0.8354
    1ACE      O    6  15.590   6.803   5.679 -0.0929  0.2564  0.3509
    2ALA      N    7  15.439   6.935   5.586 -0.1722  0.2573  0.2902
    2ALA      H    8  15.346   6.971   5.601 -0.3680 -0.8409  2.0070
    2ALA     CA    9  15.496   6.950   5.449  0.1842 -0.3441  0.0122
    2ALA     HA   10  15.438   7.024   5.394  1.3158  0.3595 -0.2892
    2ALA     CB   11  15.636   7.016   5.458  0.5413 -0.0838  0.1036
    2ALA    HB1   12  15.617   7.107   5.515  0.0378 -0.4774  0.5797
    2ALA    HB2   13  15.712   6.953   5.507  0.3981 -0.3289  0.0115
    2ALA    HB3   14  15.664   7.034   5.355 -1.1057 -0.5812 -0.4704
    2ALA      C   15  15.486   6.819   5.359 -0.0646 -0.1806 -0.5345
    2ALA      O   16  15.412   6.814   5.259  0.2478 -0.6031 -0.2502
    3ALA      N   17  15.570   6.713   5.393 -0.5144 -0.2989  0.2611
    3ALA      H   18  15.630   6.727   5.472 -1.3656  0.7037  0.7679
    3ALA     CA   19  15.546   6.577   5.341 -0.3132 -0.0074 -0.1619
    3ALA     HA   20  15.558   6.592   5.233  2.2556  1.8305  0.3008
    3ALA     CB   21  15.666   6.503   5.379  0.2357  0.1795 -0.0827
    3ALA    HB1   22  15.660   6.501   5.488 -2.3601 -0.2220 -0.1569
    3ALA    HB2   23  15.667   6.406   5.329 -1.9385  0.0117  0.1479
    3ALA    HB3   24  15.754   6.558   5.345  0.0253  0.4802 -0.1341
    3ALA      C   25  15.416   6.509   5.376  0.2100 -0.3556 -0.0315
    3ALA      O   26  15.334   6.566   5.447 -0.0036  0.4575  0.2458
    4NME      N   27  15.382   6.382   5.336  0.4341 -0.1058  0.3802
    4NME      H   28  15.441   6.324   5.278 -0.5519 -3.2485  2.2564
    4NME    CH3   29  15.269   6.305   5.395  0.3083  0.0259  0.0317
    4NME   HH31   30  15.260   6.339   5.498  2.3792 -1.9041  0.9327
    4NME   HH32   31  15.174   6.311   5.340 -0.0805  0.0928  0.6958
    4NME   HH33   32  15.287   6.198   5.408  0.2391 -0.1072 -0.9068
  20.99041  20.99041  20.99041
