Protein
   42
    1ACE   HH31    1  16.179   6.522   4.545  0.8161 -1.2208 -3.0505
    1ACE    CH3    2  16.121   6.433   4.569 -0.1571  0.2894  1.0213
    1ACE   HH32    3  16.163   6.354   4.507 -2.7328 -1.1324  0.9491
    1ACE   HH33    4  16.019   6.448   4.532 -0.2286  1.2152  1.5565
    1ACE      C    5  16.119   6.399   4.713 -0.0847  0.1539  0.0679
    1ACE      O    6  16.018   6.416   4.783 -0.0170 -0.3913 -0.0938
    2ALA      N    7  16.239   6.378   4.767  0.3165  0.5129  0.1263
    2ALA      H    8  16.322   6.375   4.709  0.2432  0.6145  0.0141
    2ALA     CA    9  16.261   6.385   4.905  0.0911 -1.1044 -0.3993
    2ALA     HA   10  16.170   6.435   4.940 -0.5874 -1.0876 -2.1095
    2ALA     CB   11  16.253   6.249   4.974 -0.6271  0.1562  0.0176
    2ALA    HB1   12  16.325   6.188   4.920 -0.5798  0.2924 -0.0684
    2ALA    HB2   13  16.274   6.262   5.081 -1.2470  1.1177  0.0434
    2ALA    HB3   14  16.156   6.200   4.965 -0.5570  0.4305 -3.0277
    2ALA      C   15  16.399   6.458   4.940  0.1509  1.3062  0.0401
    2ALA      O   16  16.503   6.414   4.885 -0.0154 -0.0930 -0.0667
    3ALA      N   17  16.413   6.561   5.027  0.4229  0.5725 -0.4213
    3ALA      H   18  16.508   6.593   5.035  0.7466 -0.0848 -1.5163
    3ALA     CA   19  16.301   6.613   5.108  0.2329 -0.1184  0.4315
    3ALA     HA   20  16.248   6.532   5.158  2.1221 -2.2246 -0.7420
    3ALA     CB   21  16.362   6.704   5.213 -0.1773  0.4048 -0.2679
    3ALA    HB1   22  16.401   6.800   5.180 -0.0577  0.3310 -0.3426
    3ALA    HB2   23  16.289   6.726   5.291 -2.0912 -0.6772 -1.6592
    3ALA    HB3   24  16.452   6.659   5.254  0.9663  0.2890 -2.7150
    3ALA      C   25  16.206   6.692   5.016 -0.2964 -0.6013 -0.0857
    3ALA      O   26  16.236   6.730   4.908 -0.4224  0.0214 -0.0323
    4ALA      N   27  16.082   6.717   5.065 -0.1294  0.0567 -0.2527
    4ALA      H   28  16.055   6.697   5.160  0.7063  0.2692  0.0333
    4ALA     CA   29  15.981   6.794   4.996 -0.2643  0.6715 -0.3393
    4ALA     HA   30  16.025   6.846   4.911 -2.8520  0.3236 -2.0064
    4ALA     CB   31  15.866   6.709   4.941 -0.2290 -0.1742  0.0452
    4ALA    HB1   32  15.905   6.628   4.879  0.2482  1.5729 -2.0544
    4ALA    HB2   33  15.805   6.671   5.023 -1.1905  2.2019  0.4915
    4ALA    HB3   34  15.807   6.763   4.866  0.1881  1.2138  0.6770
    4ALA      C   35  15.923   6.897   5.090  0.6941  0.5464 -0.6911
    4ALA      O   36  15.900   6.858   5.208 -0.4057 -0.1792  0.6358
    5NME      N   37  15.901   7.014   5.046  1.0931 -0.0645  0.2959
    5NME      H   38  15.913   7.037   4.948 -1.7876  0.5958 -0.0017
    5NME    CH3   39  15.838   7.120   5.132 -0.4210  0.4876 -0.2604
    5NME   HH31   40  15.796   7.199   5.069 -1.7323  0.4767  0.5267
    5NME   HH32   41  15.764   7.079   5.201 -0.3730  0.1339 -0.4217
    5NME   HH33   42  15.914   7.172   5.191  1.1874 -0.4051 -1.4820
  20.91516  20.91516  20.91516
