Protein
   32
    1ACE   HH31    1  18.325   5.008  12.349 -1.5425  2.7837 -0.6779
    1ACE    CH3    2  18.392   5.037  12.429  0.1396 -0.8011 -0.5886
    1ACE   HH32    3  18.493   5.001  12.410  0.7108  0.4699 -0.1107
    1ACE   HH33    4  18.349   5.000  12.522 -4.0430  1.5447 -1.3705
    1ACE      C    5  18.386   5.192  12.443  0.8401 -0.2803  0.1311
    1ACE      O    6  18.488   5.258  12.442 -0.2972 -0.3991 -0.2743
    2ALA      N    7  18.265   5.257  12.453 -0.0508 -0.1037  0.2478
    2ALA      H    8  18.189   5.192  12.466  0.4213 -0.9193 -0.9318
    2ALA     CA    9  18.234   5.400  12.449 -0.3847 -0.7546 -0.4010
    2ALA     HA   10  18.133   5.424  12.414 -0.2961  2.9716  1.4130
    2ALA     CB   11  18.237   5.455  12.591 -0.0362 -0.2211  0.3458
    2ALA    HB1   12  18.180   5.548  12.593  0.4566  0.0655  1.8111
    2ALA    HB2   13  18.197   5.372  12.650 -1.6711  0.4001  0.1819
    2ALA    HB3   14  18.337   5.468  12.633  0.0329 -0.2946  0.2017
    2ALA      C   15  18.326   5.484  12.357  0.6501  0.8228 -0.2025
    2ALA      O   16  18.366   5.596  12.394 -0.5348 -0.1880  0.1686
    3ALA      N   17  18.359   5.428  12.243 -0.4502  0.0229  0.4389
    3ALA      H   18  18.328   5.332  12.243  1.2251 -0.5651  1.2005
    3ALA     CA   19  18.455   5.473  12.139 -0.4934  0.5065  0.4136
    3ALA     HA   20  18.477   5.384  12.080 -0.0415 -1.0098  2.7323
    3ALA     CB   21  18.376   5.563  12.044  0.8568 -0.4673  0.6172
    3ALA    HB1   22  18.293   5.505  12.003  1.3754 -0.1819 -0.9136
    3ALA    HB2   23  18.336   5.652  12.093  0.2377  0.0754 -0.7883
    3ALA    HB3   24  18.423   5.595  11.951 -0.9817  1.4517  0.2753
    3ALA      C   25  18.591   5.534  12.195  0.5872 -0.8056  0.6132
    3ALA      O   26  18.651   5.611  12.115  0.5415 -0.0597  0.6012
    4NME      N   27  18.639   5.500  12.316 -0.1648  0.7814 -0.2662
    4NME      H   28  18.586   5.443  12.380  1.7641  0.5227  1.2401
    4NME    CH3   29  18.766   5.548  12.370  0.9735  0.3112  0.5032
    4NME   HH31   30  18.839   5.493  12.311 -1.4986 -1.7328 -0.8572
    4NME   HH32   31  18.777   5.654  12.350  1.4616  0.0776 -0.5998
    4NME   HH33   32  18.764   5.527  12.477  1.5050 -2.3133  0.0851
  20.99041  20.99041  20.99041
