Protein
   32
    1ACE   HH31    1   8.616  10.675  17.393  0.3480 -1.1451 -1.6508
    1ACE    CH3    2   8.546  10.593  17.376 -0.3196 -0.7495 -0.8704
    1ACE   HH32    3   8.463  10.617  17.443 -0.4038 -0.0473 -1.2215
    1ACE   HH33    4   8.599  10.504  17.411 -1.1873 -0.7732  0.4672
    1ACE      C    5   8.485  10.587  17.237 -0.7340 -0.3275 -1.1945
    1ACE      O    6   8.438  10.690  17.188 -0.6054  0.1016  0.4381
    2ALA      N    7   8.482  10.472  17.170 -0.1947 -0.1283 -0.0399
    2ALA      H    8   8.540  10.402  17.214  0.2869  0.4833  0.3213
    2ALA     CA    9   8.425  10.439  17.040 -0.2202  0.1820  0.2816
    2ALA     HA   10   8.460  10.516  16.971  1.8800  0.2616  1.3428
    2ALA     CB   11   8.488  10.302  17.002 -0.8120  0.7818  0.4905
    2ALA    HB1   12   8.431  10.223  17.051  0.2526 -0.2223  0.1749
    2ALA    HB2   13   8.491  10.288  16.894 -0.7682 -0.9059  0.6749
    2ALA    HB3   14   8.594  10.300  17.028 -0.6980 -0.7951  0.0244
    2ALA      C   15   8.271  10.438  17.042  0.5555 -0.0655  0.0070
    2ALA      O   16   8.213  10.407  16.941  0.5115  0.0891 -0.6759
    3ALA      N   17   8.209  10.456  17.151  0.6713  0.1375 -0.4305
    3ALA      H   18   8.264  10.459  17.236  0.8078  0.0127 -0.5168
    3ALA     CA   19   8.070  10.507  17.161 -0.2920  0.5650  0.3216
    3ALA     HA   20   8.003  10.470  17.084 -0.8068  1.4996  0.2982
    3ALA     CB   21   8.019  10.452  17.297  0.2669  0.0705 -0.0192
    3ALA    HB1   22   7.918  10.489  17.313 -0.8809 -2.7418 -0.2278
    3ALA    HB2   23   8.004  10.345  17.289 -1.1774  0.1588  1.1074
    3ALA    HB3   24   8.077  10.487  17.382  1.0192  1.3007 -0.9858
    3ALA      C   25   8.048  10.657  17.145 -0.6744 -0.5151 -0.6406
    3ALA      O   26   7.935  10.694  17.149 -0.4389  0.0611  0.5764
    4NME      N   27   8.158  10.740  17.133  1.0889 -0.3415 -0.0238
    4NME      H   28   8.250  10.697  17.128 -0.0957 -3.0835  0.0809
    4NME    CH3   29   8.137  10.886  17.128 -0.0752  0.7061 -0.3360
    4NME   HH31   30   8.227  10.945  17.148 -1.5342  2.5170  1.1615
    4NME   HH32   31   8.105  10.928  17.033 -1.3675  2.0976  0.6733
    4NME   HH33   32   8.067  10.908  17.208  1.1451  1.4729  0.5715
  20.99041  20.99041  20.99041
