Protein
   32
    1ACE   HH31    1  16.553   5.656   7.296 -0.0492  0.8369 -0.1339
    1ACE    CH3    2  16.471   5.592   7.329  0.2547  0.4034 -0.2056
    1ACE   HH32    3  16.504   5.493   7.298  2.2380 -0.0537  2.7954
    1ACE   HH33    4  16.376   5.630   7.292  1.2277  2.2946 -0.9401
    1ACE      C    5  16.448   5.607   7.483 -0.3010 -0.5268  0.6484
    1ACE      O    6  16.352   5.664   7.531 -0.0664 -0.0975 -0.4713
    2ALA      N    7  16.539   5.550   7.559 -0.2122  0.1830  0.6611
    2ALA      H    8  16.610   5.503   7.504 -0.2470  2.0350 -1.0556
    2ALA     CA    9  16.549   5.539   7.703  1.2696  0.5269  0.7560
    2ALA     HA   10  16.621   5.460   7.726  1.7174  1.2883  2.0542
    2ALA     CB   11  16.620   5.661   7.753 -0.3688 -0.5896 -0.0230
    2ALA    HB1   12  16.719   5.681   7.714  0.3032 -0.1765  1.7703
    2ALA    HB2   13  16.556   5.748   7.735  0.2402 -0.1950 -0.2940
    2ALA    HB3   14  16.637   5.649   7.860  4.2055  0.2787 -0.4462
    2ALA      C   15  16.416   5.504   7.775 -0.6618 -1.1144 -0.1811
    2ALA      O   16  16.360   5.402   7.748 -0.6527  0.1556  0.2057
    3ALA      N   17  16.366   5.593   7.870 -0.2040  0.4946  0.2010
    3ALA      H   18  16.419   5.675   7.894  1.1665 -0.2075 -0.3311
    3ALA     CA   19  16.222   5.596   7.900 -0.0751  1.6962  0.5887
    3ALA     HA   20  16.183   5.536   7.817  2.2101  0.2582  0.4777
    3ALA     CB   21  16.198   5.543   8.043  0.1241  0.0656 -0.0514
    3ALA    HB1   22  16.092   5.537   8.069 -0.6448  1.0065 -2.6069
    3ALA    HB2   23  16.238   5.443   8.061 -0.1860 -0.4250 -1.8644
    3ALA    HB3   24  16.247   5.612   8.112  2.5865 -1.7295  0.0909
    3ALA      C   25  16.179   5.734   7.869  0.0205 -0.0197  0.6449
    3ALA      O   26  16.257   5.831   7.881  0.2860 -0.5752 -0.2827
    4NME      N   27  16.048   5.751   7.846 -0.0100  0.0966  0.4888
    4NME      H   28  15.992   5.670   7.823 -0.8612  0.9122 -0.4121
    4NME    CH3   29  15.974   5.877   7.822 -0.3109  0.2039 -0.4700
    4NME   HH31   30  15.866   5.866   7.823 -0.4340 -0.1426 -4.1235
    4NME   HH32   31  16.004   5.943   7.903 -0.8576  0.3990 -0.4191
    4NME   HH33   32  16.006   5.916   7.725  2.6112 -3.2286 -1.1403
  20.99041  20.99041  20.99041
