Protein
   42
    1ACE   HH31    1   9.562   8.870   9.553 -1.0488 -0.3540 -1.1755
    1ACE    CH3    2   9.489   8.904   9.627 -0.1348 -0.4404 -0.2201
    1ACE   HH32    3   9.391   8.868   9.597 -0.3168  0.8640 -1.3037
    1ACE   HH33    4   9.498   9.013   9.624  0.2579 -0.4886 -1.6305
    1ACE      C    5   9.526   8.855   9.762 -0.8661 -0.0965  0.2279
    1ACE      O    6   9.648   8.829   9.783  0.7376 -0.1077 -0.1609
    2ALA      N    7   9.429   8.860   9.848  0.1415  0.0774 -0.0529
    2ALA      H    8   9.341   8.881   9.802  1.6886  3.2011 -1.8286
    2ALA     CA    9   9.433   8.831   9.993 -0.2981 -0.3423  0.3708
    2ALA     HA   10   9.334   8.791  10.014 -0.6803  0.6145  0.4757
    2ALA     CB   11   9.523   8.717  10.035  0.1024 -0.2793  0.2509
    2ALA    HB1   12   9.625   8.750  10.055 -0.2519 -0.4871  2.5612
    2ALA    HB2   13   9.479   8.675  10.125  0.1506  1.4364  1.1084
    2ALA    HB3   14   9.529   8.645   9.953  3.0143  1.1428 -0.9510
    2ALA      C   15   9.423   8.964  10.075 -0.5348 -0.2451  0.2263
    2ALA      O   16   9.418   9.078  10.021  0.6595 -0.0323 -0.8030
    3ALA      N   17   9.444   8.964  10.211 -0.7314 -0.1541  0.4577
    3ALA      H   18   9.479   9.054  10.243  0.5450 -0.1060 -0.9588
    3ALA     CA   19   9.377   8.877  10.314 -0.6580  0.3483 -0.2202
    3ALA     HA   20   9.447   8.804  10.354  0.3326  2.7098  2.8193
    3ALA     CB   21   9.344   8.975  10.434  0.3309  0.1142 -0.4785
    3ALA    HB1   22   9.438   9.020  10.466  0.1105  0.9496 -0.9637
    3ALA    HB2   23   9.284   9.052  10.386 -0.1945 -2.0008 -3.4885
    3ALA    HB3   24   9.284   8.933  10.514  0.5070 -0.7671 -0.7951
    3ALA      C   25   9.249   8.796  10.274  0.5139  0.4743  0.7916
    3ALA      O   26   9.177   8.832  10.179  0.4202 -0.0135  0.1289
    4ALA      N   27   9.213   8.706  10.363 -0.2411 -0.1204  0.4354
    4ALA      H   28   9.267   8.697  10.448  0.5061 -0.5707 -0.0726
    4ALA     CA   29   9.082   8.635  10.353 -0.2422 -0.5381  0.4559
    4ALA     HA   30   9.056   8.618  10.248 -1.1043 -0.2094  0.6143
    4ALA     CB   31   9.099   8.502  10.426 -0.2891  0.5956  0.6015
    4ALA    HB1   32   9.196   8.460  10.398 -1.3982 -0.5239 -1.9701
    4ALA    HB2   33   9.101   8.515  10.534 -0.8005 -0.3965  0.7322
    4ALA    HB3   34   9.016   8.435  10.405  0.8022 -0.4160 -0.6599
    4ALA      C   35   8.962   8.723  10.399  0.1361  0.5252  0.0751
    4ALA      O   36   8.868   8.672  10.456  0.2240  0.2693 -0.0877
    5NME      N   37   8.963   8.852  10.375  0.4562  0.2458  0.1724
    5NME      H   38   9.018   8.874  10.293  0.7075  1.4673  0.6470
    5NME    CH3   39   8.844   8.940  10.385 -0.2915 -0.2373  1.0310
    5NME   HH31   40   8.856   9.035  10.333  0.1653 -0.0971  1.3790
    5NME   HH32   41   8.763   8.889  10.333 -0.4472  0.4241  0.6028
    5NME   HH33   42   8.812   8.959  10.488  1.1088  0.0107  1.4507
  20.91516  20.91516  20.91516
