Protein
   32
    1ACE   HH31    1   8.524   9.523  11.832  0.0392 -1.3825 -0.5567
    1ACE    CH3    2   8.620   9.480  11.804  0.4745 -0.4007 -0.5968
    1ACE   HH32    3   8.633   9.380  11.846 -1.3665 -1.7258 -2.9731
    1ACE   HH33    4   8.704   9.544  11.827 -0.1773  0.8123 -1.5299
    1ACE      C    5   8.614   9.480  11.649 -0.3458 -0.3079 -0.1660
    1ACE      O    6   8.626   9.587  11.587  0.2755 -0.4747 -0.3247
    2ALA      N    7   8.610   9.356  11.594 -0.1474  0.4448 -0.3210
    2ALA      H    8   8.563   9.283  11.646  1.4722 -0.5349 -0.1749
    2ALA     CA    9   8.594   9.341  11.450 -1.1191 -0.2305 -0.7288
    2ALA     HA   10   8.621   9.436  11.405  1.2276  0.8465  2.5391
    2ALA     CB   11   8.679   9.226  11.386 -0.7193 -0.0497 -0.5246
    2ALA    HB1   12   8.786   9.243  11.394 -0.8404 -0.1560  1.8413
    2ALA    HB2   13   8.663   9.128  11.432  2.3518  0.3373  1.6767
    2ALA    HB3   14   8.657   9.209  11.280 -1.7483  0.7812 -0.4608
    2ALA      C   15   8.441   9.329  11.421 -0.1774  0.0442  0.5394
    2ALA      O   16   8.365   9.277  11.497  0.4823  0.0874 -0.1677
    3ALA      N   17   8.403   9.387  11.310 -0.3967  0.0135  0.1382
    3ALA      H   18   8.479   9.402  11.244 -1.6134  0.5434 -1.2022
    3ALA     CA   19   8.276   9.400  11.245 -0.4846 -0.0184  0.0677
    3ALA     HA   20   8.296   9.482  11.176  0.2389  1.2503  1.6972
    3ALA     CB   21   8.249   9.279  11.159 -0.3747 -0.4842  0.0949
    3ALA    HB1   22   8.336   9.272  11.094  2.2414 -0.7872  3.3263
    3ALA    HB2   23   8.238   9.200  11.234 -2.3323 -0.0968  0.2649
    3ALA    HB3   24   8.151   9.286  11.112 -0.6060 -0.6220  0.5583
    3ALA      C   25   8.157   9.451  11.327 -0.3906  0.1362  0.3928
    3ALA      O   26   8.062   9.492  11.263 -0.2300  0.2564  0.0587
    4NME      N   27   8.152   9.451  11.462  0.2202  0.5533  0.6269
    4NME      H   28   8.233   9.402  11.498  0.6125 -0.1223 -1.0837
    4NME    CH3   29   8.032   9.481  11.543  0.2773  0.0299  0.1869
    4NME   HH31   30   7.952   9.491  11.470  0.5080 -0.4857 -0.1371
    4NME   HH32   31   8.020   9.399  11.614  2.2005 -1.8346 -1.5096
    4NME   HH33   32   8.038   9.573  11.601 -0.3499 -0.1212  0.5073
  20.99041  20.99041  20.99041
