Protein
   42
    1ACE   HH31    1  11.219  15.504  13.350  0.0921  0.1777 -0.3723
    1ACE    CH3    2  11.239  15.515  13.456 -0.6597  0.3204 -0.2332
    1ACE   HH32    3  11.146  15.493  13.508  0.9503  1.4413  3.4188
    1ACE   HH33    4  11.260  15.617  13.486 -3.0277  0.5976  0.7330
    1ACE      C    5  11.335  15.413  13.502  0.0852  0.5224  0.2523
    1ACE      O    6  11.457  15.437  13.497 -0.5997  0.4431 -0.0113
    2ALA      N    7  11.292  15.295  13.539  0.7103  0.3435 -0.0615
    2ALA      H    8  11.192  15.279  13.546  0.5582  0.8149 -0.9526
    2ALA     CA    9  11.380  15.188  13.587  0.3882 -0.3872 -0.2268
    2ALA     HA   10  11.442  15.225  13.669  0.3760  0.4656 -0.5981
    2ALA     CB   11  11.285  15.075  13.636  0.2526  0.0160 -0.3859
    2ALA    HB1   12  11.218  15.102  13.718  0.7242 -1.8440  0.6653
    2ALA    HB2   13  11.215  15.053  13.555 -0.6930 -1.0358  0.6837
    2ALA    HB3   14  11.340  14.985  13.663  0.8808 -0.1230 -2.0514
    2ALA      C   15  11.480  15.138  13.481 -0.1124 -0.0313 -0.5764
    2ALA      O   16  11.437  15.064  13.392 -0.1465 -0.3368  0.4113
    3ALA      N   17  11.610  15.185  13.486  0.1718 -0.4548  0.7183
    3ALA      H   18  11.613  15.268  13.542 -0.8491 -1.1519  1.8807
    3ALA     CA   19  11.716  15.153  13.387  1.0196 -0.5298 -0.0576
    3ALA     HA   20  11.809  15.196  13.424  0.4391 -0.2702  1.1155
    3ALA     CB   21  11.755  15.010  13.381 -0.0265  0.4867  0.4568
    3ALA    HB1   22  11.671  14.954  13.340 -0.3386  2.0146 -1.0746
    3ALA    HB2   23  11.839  15.015  13.311  1.0820 -0.9748  1.5942
    3ALA    HB3   24  11.797  14.981  13.478  0.0004  1.0487  0.6130
    3ALA      C   25  11.687  15.209  13.245 -0.3042 -0.4431 -0.1743
    3ALA      O   26  11.778  15.227  13.173 -0.0195 -0.0647 -0.2801
    4ALA      N   27  11.564  15.235  13.209  0.3321  0.4065  0.0245
    4ALA      H   28  11.496  15.208  13.279 -0.4581  0.0370 -0.8485
    4ALA     CA   29  11.507  15.291  13.086  0.3644 -0.2884 -0.2295
    4ALA     HA   30  11.541  15.394  13.081 -2.6760  0.7882 -0.9013
    4ALA     CB   31  11.554  15.212  12.962  0.7748 -0.4777  0.2834
    4ALA    HB1   32  11.552  15.269  12.870  0.5803 -0.1893  0.4622
    4ALA    HB2   33  11.658  15.182  12.970  0.2505 -2.2564  1.2884
    4ALA    HB3   34  11.503  15.116  12.952  0.6628 -0.2593 -1.3356
    4ALA      C   35  11.353  15.285  13.078 -0.1541 -0.6937  0.7039
    4ALA      O   36  11.293  15.351  12.992 -0.1672  0.3196  0.8988
    5NME      N   37  11.289  15.203  13.162 -0.5842 -0.1432  0.2590
    5NME      H   38  11.340  15.149  13.230 -0.3380  2.0618  1.9241
    5NME    CH3   39  11.147  15.181  13.167 -0.4496  0.5097  0.0699
    5NME   HH31   40  11.102  15.251  13.238  0.0580 -0.6193  1.5778
    5NME   HH32   41  11.094  15.195  13.073  2.7915  1.5902 -1.7055
    5NME   HH33   42  11.132  15.080  13.204  1.3825 -0.3710 -1.4874
  20.91516  20.91516  20.91516
