Protein
   32
    1ACE   HH31    1  12.400   8.607   6.545  1.2398 -0.3948  1.1254
    1ACE    CH3    2  12.477   8.677   6.511 -0.2927  0.7871 -0.0735
    1ACE   HH32    3  12.433   8.761   6.458  0.8175  0.9230 -0.8102
    1ACE   HH33    4  12.549   8.626   6.447 -1.3742 -0.8660 -0.0193
    1ACE      C    5  12.544   8.728   6.640 -0.0090 -0.1720  0.4677
    1ACE      O    6  12.483   8.727   6.746 -0.3958 -0.2524  0.5896
    2ALA      N    7  12.671   8.763   6.634 -0.1734 -0.1829 -0.2408
    2ALA      H    8  12.709   8.761   6.540 -1.1087 -1.1388 -0.6273
    2ALA     CA    9  12.744   8.855   6.726  0.3239 -0.1135 -0.4925
    2ALA     HA   10  12.672   8.880   6.804  1.3879  0.0850  0.4445
    2ALA     CB   11  12.860   8.780   6.788  0.2777 -0.2114 -0.6912
    2ALA    HB1   12  12.888   8.842   6.873 -0.4301  0.3209 -0.8433
    2ALA    HB2   13  12.824   8.682   6.818 -1.6331  0.1128 -1.7901
    2ALA    HB3   14  12.938   8.767   6.712 -0.7853  1.6805 -2.1855
    2ALA      C   15  12.783   8.985   6.654 -0.4630 -0.6785  0.4259
    2ALA      O   16  12.832   8.979   6.541  0.3264 -0.4894  0.6715
    3ALA      N   17  12.753   9.101   6.710 -0.5367  0.1301  0.4369
    3ALA      H   18  12.698   9.105   6.795 -0.8239 -1.3240  0.3597
    3ALA     CA   19  12.781   9.227   6.640 -0.7905 -0.9236 -0.5619
    3ALA     HA   20  12.842   9.207   6.552  0.3267 -0.8787  0.1842
    3ALA     CB   21  12.644   9.287   6.595  0.3956 -0.8278 -0.2727
    3ALA    HB1   22  12.575   9.214   6.552 -0.3680 -0.4183  0.2382
    3ALA    HB2   23  12.593   9.333   6.679 -0.8786  1.1639 -2.0139
    3ALA    HB3   24  12.662   9.369   6.526  0.0624 -0.3857  0.1551
    3ALA      C   25  12.853   9.338   6.720  0.1270 -0.0440 -0.4734
    3ALA      O   26  12.849   9.346   6.845 -0.0015 -0.1013  0.2137
    4NME      N   27  12.930   9.425   6.654 -0.3751  0.4849  0.4525
    4NME      H   28  12.921   9.424   6.553 -2.3709  0.1291  0.5867
    4NME    CH3   29  13.008   9.529   6.719 -0.1255  0.0873  0.2328
    4NME   HH31   30  13.008   9.619   6.657  1.3758 -1.0351 -1.4739
    4NME   HH32   31  12.951   9.576   6.800 -1.9322  1.1451 -1.5351
    4NME   HH33   32  13.108   9.501   6.752 -0.7016 -0.7410  1.3527
  20.99041  20.99041  20.99041
