Protein
   32
    1ACE   HH31    1  11.474  10.371  12.562 -0.4546  0.6126  0.2905
    1ACE    CH3    2  11.403  10.451  12.540 -0.1805  0.7716 -0.0113
    1ACE   HH32    3  11.358  10.444  12.441 -2.4753  1.5106  0.9156
    1ACE   HH33    4  11.445  10.550  12.553  0.2266  0.6427 -0.3023
    1ACE      C    5  11.289  10.445  12.639 -0.2465  0.3445  1.0651
    1ACE      O    6  11.185  10.390  12.604  0.2781  0.3332  0.2438
    2ALA      N    7  11.306  10.499  12.766  0.5463  0.4277 -0.6361
    2ALA      H    8  11.388  10.551  12.793  0.6961  0.6362 -1.4553
    2ALA     CA    9  11.201  10.494  12.869  0.0869  0.4320 -0.0979
    2ALA     HA   10  11.141  10.404  12.851 -2.2932  1.4126  2.2094
    2ALA     CB   11  11.270  10.481  13.002 -0.7921 -0.8762 -0.4371
    2ALA    HB1   12  11.332  10.570  13.006 -1.3305 -0.1985 -3.8696
    2ALA    HB2   13  11.195  10.479  13.081  0.6961 -1.3252  1.0110
    2ALA    HB3   14  11.326  10.387  13.006 -0.4470 -0.6653 -0.2914
    2ALA      C   15  11.111  10.615  12.850  0.1634 -0.2124 -0.4502
    2ALA      O   16  11.071  10.676  12.951  0.2060  0.4137 -0.0722
    3ALA      N   17  11.067  10.651  12.728 -0.0735  0.5005 -0.7297
    3ALA      H   18  11.072  10.581  12.656 -1.0378 -0.9121  0.4883
    3ALA     CA   19  11.021  10.780  12.681  0.1353  0.2422 -0.0690
    3ALA     HA   20  11.049  10.772  12.576 -0.3019 -1.3278 -0.0842
    3ALA     CB   21  10.869  10.790  12.686  0.7364 -0.2077  0.1124
    3ALA    HB1   22  10.821  10.732  12.607  0.1993  1.4908 -0.8569
    3ALA    HB2   23  10.824  10.767  12.782 -1.0899 -1.1610 -0.9079
    3ALA    HB3   24  10.831  10.888  12.659 -0.8077 -0.9366 -0.4460
    3ALA      C   25  11.099  10.906  12.726  0.3667 -0.6671 -0.0140
    3ALA      O   26  11.215  10.896  12.767 -0.0415  0.2065  0.4574
    4NME      N   27  11.041  11.025  12.707  0.3076 -0.0793  0.2903
    4NME      H   28  10.949  11.037  12.667  0.5859 -0.7791 -0.5787
    4NME    CH3   29  11.117  11.144  12.748  0.3898 -0.3102 -0.0814
    4NME   HH31   30  11.071  11.234  12.707 -1.7558 -1.2131  0.1962
    4NME   HH32   31  11.114  11.151  12.857  0.7814 -0.0645 -0.0811
    4NME   HH33   32  11.223  11.135  12.725  1.1606  1.9781  2.0713
  20.99041  20.99041  20.99041
