Protein
   42
    1ACE   HH31    1  11.276   9.672   7.343 -0.5963 -0.0377  1.0644
    1ACE    CH3    2  11.270   9.564   7.330  0.3647  0.0289 -0.0967
    1ACE   HH32    3  11.195   9.550   7.252 -1.1929  2.4547  0.8509
    1ACE   HH33    4  11.230   9.519   7.421 -1.9208 -2.7917 -2.2772
    1ACE      C    5  11.404   9.508   7.276  0.3800  0.3020 -0.2180
    1ACE      O    6  11.488   9.586   7.256  0.3828  0.4773  0.2126
    2ALA      N    7  11.412   9.384   7.247 -0.2384 -0.0259 -0.0206
    2ALA      H    8  11.335   9.327   7.280 -0.5875  0.7082  0.4689
    2ALA     CA    9  11.514   9.319   7.164  0.9625 -0.4494 -0.1880
    2ALA     HA   10  11.538   9.232   7.225 -0.5248  0.9307  2.5324
    2ALA     CB   11  11.458   9.270   7.025  0.3791  0.1226  0.2418
    2ALA    HB1   12  11.545   9.236   6.968  1.0852  1.7666  0.2637
    2ALA    HB2   13  11.392   9.186   7.043  1.4032 -0.6816  0.3005
    2ALA    HB3   14  11.396   9.343   6.973 -0.9448 -1.4191 -0.4274
    2ALA      C   15  11.649   9.390   7.153  0.7528  0.4763  0.2469
    2ALA      O   16  11.736   9.353   7.227  0.5296  0.1269 -0.0214
    3ALA      N   17  11.669   9.472   7.050 -0.0315 -0.4924  0.2057
    3ALA      H   18  11.588   9.471   6.989 -0.3771 -0.6189  0.6636
    3ALA     CA   19  11.780   9.558   7.014 -0.1531  0.1405 -0.1068
    3ALA     HA   20  11.851   9.494   6.961  0.7187  1.2574 -0.3625
    3ALA     CB   21  11.735   9.670   6.919 -0.8382  0.1395 -0.4684
    3ALA    HB1   22  11.826   9.722   6.888  0.8211 -2.9227 -1.1565
    3ALA    HB2   23  11.684   9.627   6.833 -0.1845 -1.0616 -0.2586
    3ALA    HB3   24  11.670   9.735   6.978  0.1692 -0.6685  1.6141
    3ALA      C   25  11.867   9.612   7.133  0.3690  0.5522 -0.1067
    3ALA      O   26  11.991   9.600   7.130 -0.3697  0.6835 -0.1911
    4ALA      N   27  11.800   9.643   7.249 -0.3271  0.0955  1.0294
    4ALA      H   28  11.699   9.645   7.253 -0.4386  2.4804 -0.7507
    4ALA     CA   29  11.872   9.684   7.373 -0.6206  0.3687  0.3179
    4ALA     HA   30  11.973   9.645   7.383 -0.3741  1.4467  2.3123
    4ALA     CB   31  11.890   9.836   7.375  0.6941 -0.0666  0.3495
    4ALA    HB1   32  11.803   9.901   7.385  0.8093  0.0522  0.5788
    4ALA    HB2   33  11.946   9.849   7.467  1.0071  1.2419 -0.0147
    4ALA    HB3   34  11.943   9.872   7.287  0.9292 -0.1791  0.4449
    4ALA      C   35  11.787   9.631   7.489 -0.0924  0.5508  0.1417
    4ALA      O   36  11.739   9.702   7.576 -0.0133 -0.6910 -0.3415
    5NME      N   37  11.759   9.501   7.488 -0.0047 -0.2600  0.3379
    5NME      H   38  11.777   9.453   7.401  2.8137  3.3796 -1.3501
    5NME    CH3   39  11.694   9.434   7.602 -0.1495 -0.7177 -0.5493
    5NME   HH31   40  11.712   9.487   7.696  3.6148  0.4391 -1.7503
    5NME   HH32   41  11.588   9.425   7.578 -0.4196 -1.0449  0.6974
    5NME   HH33   42  11.717   9.327   7.608  0.5720 -0.5353  0.0692
  20.91516  20.91516  20.91516
