Title
  129
    1AIB    CAY    1  21.436  21.163  21.347 -0.5151 -0.3345 -0.0535
    1AIB    HY1    2  21.335  21.129  21.314 -0.8200  1.3734 -0.9968
    1AIB    HY2    3  21.493  21.201  21.259 -0.9381 -0.7698 -0.5366
    1AIB    HY3    4  21.437  21.231  21.434  0.3703  0.7985 -0.9255
    1AIB     CY    5  21.500  21.040  21.392  0.1254 -0.3331  0.1885
    1AIB     OY    6  21.433  20.935  21.406 -0.2680 -0.9656  0.4535
    1AIB      N    7  21.633  21.043  21.417  0.4936 -0.5636  0.1362
    1AIB     HN    8  21.677  21.132  21.419  2.2890 -1.4096  1.2555
    1AIB     CA    9  21.727  20.940  21.460 -0.2327  0.2825 -0.0062
    1AIB    CB1   10  21.738  20.943  21.615 -0.0241 -0.3534  0.4359
    1AIB   HB11   11  21.634  20.943  21.654  0.2348  0.9022  1.1408
    1AIB   HB12   12  21.797  21.034  21.640  2.7413 -1.7579 -0.5835
    1AIB   HB13   13  21.802  20.859  21.649  1.8711  0.7924 -0.1475
    1AIB    CB2   14  21.871  20.964  21.399 -0.6580 -0.3413  0.2699
    1AIB   HB21   15  21.896  21.067  21.434 -1.4977 -0.5881  1.6490
    1AIB   HB22   16  21.864  20.959  21.288 -4.3465 -0.9889  0.4049
    1AIB   HB23   17  21.938  20.886  21.442  1.7129  2.2271  1.6348
    1AIB      C   18  21.679  20.800  21.415 -0.1206  0.2938 -0.5786
    1AIB      O   19  21.666  20.773  21.294 -0.4138  0.4784 -0.3910
    2AIB      N   20  21.645  20.708  21.510  0.2158 -0.4162  0.1094
    2AIB     HN   21  21.638  20.728  21.608  0.4063  0.4925 -0.0520
    2AIB     CA   22  21.614  20.576  21.486 -0.4749  0.0478 -0.2983
    2AIB    CB1   23  21.584  20.530  21.630 -0.3471 -0.4043  0.2448
    2AIB   HB11   24  21.514  20.584  21.698  2.3693  1.5919  1.6363
    2AIB   HB12   25  21.683  20.540  21.680  1.3834  0.7273 -3.0833
    2AIB   HB13   26  21.548  20.425  21.631  2.0027 -1.2805  0.4064
    2AIB    CB2   27  21.738  20.490  21.438 -0.0410 -0.6528  0.5902
    2AIB   HB21   28  21.773  20.540  21.344  1.3282  0.3906  1.6069
    2AIB   HB22   29  21.704  20.385  21.426  0.7076 -1.4909  4.5934
    2AIB   HB23   30  21.826  20.481  21.504  0.3943  0.1305  0.1419
    2AIB      C   31  21.488  20.544  21.399  0.3575 -0.6858 -0.1286
    2AIB      O   32  21.487  20.436  21.338  0.5475 -0.5942  0.0668
    3AIB      N   33  21.387  20.630  21.391  0.0979 -0.7144 -0.3396
    3AIB     HN   34  21.406  20.725  21.416  1.6512 -1.4172  1.4220
    3AIB     CA   35  21.257  20.613  21.327 -0.1025 -0.1933  0.1204
    3AIB    CB1   36  21.158  20.717  21.367  0.0163 -0.0973 -0.2758
    3AIB   HB11   37  21.058  20.693  21.324  0.4806 -1.6155 -0.5354
    3AIB   HB12   38  21.181  20.824  21.345 -0.7994  0.3457  0.8993
    3AIB   HB13   39  21.134  20.725  21.475 -3.2393  1.3471 -0.9729
    3AIB    CB2   40  21.187  20.473  21.353 -0.1750 -0.2804  0.8647
    3AIB   HB21   41  21.261  20.394  21.329  0.3479  0.1688  0.9823
    3AIB   HB22   42  21.101  20.455  21.284  0.6084 -2.8643  0.4249
    3AIB   HB23   43  21.154  20.467  21.459 -1.6052 -0.0098  0.4639
    3AIB      C   44  21.279  20.630  21.174  0.7109  0.5040 -0.0308
    3AIB      O   45  21.235  20.546  21.097 -0.1410 -0.0366  0.6552
    4AIB      N   46  21.358  20.732  21.140  0.1289  0.3076 -0.4060
    4AIB     HN   47  21.394  20.804  21.199  0.1244  0.4430 -0.5633
    4AIB     CA   48  21.404  20.750  21.001 -0.1542  0.5525  0.5062
    4AIB    CB1   49  21.509  20.857  20.988 -0.8068  0.5390  0.1937
    4AIB   HB11   50  21.542  20.882  20.885 -1.9801  2.9802  0.3331
    4AIB   HB12   51  21.597  20.826  21.050 -0.9861 -0.6585 -0.1053
    4AIB   HB13   52  21.473  20.956  21.023  0.7923  1.7993 -1.5659
    4AIB    CB2   53  21.279  20.795  20.919  0.4245 -1.0282 -0.0250
    4AIB   HB21   54  21.307  20.830  20.817 -1.8312 -0.2678 -0.4314
    4AIB   HB22   55  21.225  20.876  20.973  1.3962 -0.5207  0.2166
    4AIB   HB23   56  21.216  20.705  20.915 -1.5081  0.2950 -1.3699
    4AIB      C   57  21.463  20.626  20.924 -0.0356 -0.6952  0.2888
    4AIB      O   58  21.422  20.586  20.808  0.2437 -0.0439  0.1786
    5AIB      N   59  21.551  20.548  20.994 -0.0558 -0.1344 -0.4580
    5AIB     HN   60  21.579  20.570  21.087  1.2229 -1.9895 -0.3492
    5AIB     CA   61  21.617  20.432  20.945  0.3245  0.5118 -0.3490
    5AIB    CB1   62  21.707  20.385  21.058 -0.7852 -0.1204  0.4570
    5AIB   HB11   63  21.652  20.352  21.149 -2.6703  0.3675 -0.4671
    5AIB   HB12   64  21.780  20.461  21.093  0.8927 -2.0045  1.2341
    5AIB   HB13   65  21.775  20.313  21.009 -0.8770  1.8336 -2.8490
    5AIB    CB2   66  21.712  20.463  20.825 -0.7803  0.0378  1.1150
    5AIB   HB21   67  21.774  20.377  20.792 -1.1975 -0.1419  0.7864
    5AIB   HB22   68  21.774  20.553  20.846  0.8118 -0.5702 -0.6552
    5AIB   HB23   69  21.645  20.502  20.745 -0.3176 -2.5691 -0.6692
    5AIB      C   70  21.521  20.308  20.921  0.0004 -0.3113  0.4241
    5AIB      O   71  21.550  20.214  20.839  0.1724 -0.0960 -0.8889
    6AIB      N   72  21.407  20.299  21.000  0.2023 -0.0317  0.1660
    6AIB     HN   73  21.373  20.364  21.068 -3.4650  0.5054 -1.9316
    6AIB     CA   74  21.312  20.195  20.984 -0.0685  0.3740  0.8121
    6AIB    CB1   75  21.188  20.231  21.073  0.6206  0.7589  0.3510
    6AIB   HB11   76  21.108  20.155  21.061  1.1606  0.1221  0.6847
    6AIB   HB12   77  21.148  20.330  21.042  1.1018  1.1200  0.8553
    6AIB   HB13   78  21.221  20.226  21.179  1.3492  0.0436  0.1000
    6AIB    CB2   79  21.369  20.056  21.019 -0.0915  0.1725  0.3902
    6AIB   HB21   80  21.446  20.015  20.949 -0.2609 -0.8845  0.8109
    6AIB   HB22   81  21.281  19.988  21.017  1.4633 -2.0673  2.8408
    6AIB   HB23   82  21.417  20.054  21.119  0.3931 -0.9332  0.1631
    6AIB      C   83  21.249  20.191  20.842 -0.6503  0.0032  0.1208
    6AIB      O   84  21.193  20.088  20.803 -0.7609  0.4096 -0.4187
    7AIB      N   85  21.265  20.301  20.762  0.2344  0.3847 -0.7125
    7AIB     HN   86  21.318  20.381  20.792 -0.8697 -0.1012  2.9012
    7AIB     CA   87  21.201  20.318  20.635  0.0952  0.1643  0.2891
    7AIB    CB1   88  21.222  20.462  20.586  0.0979 -0.2839  0.3249
    7AIB   HB11   89  21.201  20.478  20.478 -0.7815 -2.9807  0.0157
    7AIB   HB12   90  21.329  20.491  20.592  0.4541 -1.6880  1.4809
    7AIB   HB13   91  21.170  20.538  20.648 -0.8557 -0.2736 -0.4800
    7AIB    CB2   92  21.045  20.313  20.649 -0.0692 -0.8501 -0.3286
    7AIB   HB21   93  21.003  20.211  20.664  0.2209 -0.8553  0.5697
    7AIB   HB22   94  20.998  20.354  20.557 -0.5263 -2.4459 -0.8564
    7AIB   HB23   95  21.010  20.385  20.726  0.2438  0.5513 -1.4701
    7AIB      C   96  21.261  20.219  20.529  0.3650 -0.2625  0.3357
    7AIB      O   97  21.195  20.187  20.426 -0.6474 -0.7053 -0.1346
    8AIB      N   98  21.380  20.161  20.550  0.1927  0.7079 -0.3136
    8AIB     HN   99  21.416  20.168  20.643 -2.2585  1.3834  0.6606
    8AIB     CA  100  21.455  20.073  20.464 -0.1458  0.5801  0.2562
    8AIB    CB1  101  21.595  20.055  20.526  0.0823 -0.5181 -0.3732
    8AIB   HB11  102  21.599  20.081  20.634 -4.2322  2.1825 -0.6191
    8AIB   HB12  103  21.660  20.127  20.472  1.0989 -0.5792  0.7190
    8AIB   HB13  104  21.637  19.954  20.507 -0.0709 -0.3409 -1.7790
    8AIB    CB2  105  21.476  20.121  20.318 -0.0315  0.1871  0.1608
    8AIB   HB21  106  21.382  20.156  20.273  0.2639  0.8597  0.0582
    8AIB   HB22  107  21.526  20.045  20.254 -0.2409 -0.7309  1.0392
    8AIB   HB23  108  21.540  20.212  20.322 -0.5139  0.4824  1.4142
    8AIB      C  109  21.386  19.933  20.449 -0.2358 -0.4727 -0.0523
    8AIB      O  110  21.395  19.863  20.346  0.3536  0.0582 -0.3563
    9AIB      N  111  21.319  19.888  20.563 -0.4445 -0.0863 -0.0034
    9AIB     HN  112  21.311  19.952  20.639  1.4482  0.1029  0.0891
    9AIB     CA  113  21.265  19.755  20.581 -0.0332 -0.7083  0.0172
    9AIB    CB1  114  21.200  19.752  20.727 -0.3267 -0.0264  0.0441
    9AIB   HB11  115  21.136  19.843  20.733 -0.3794  0.0271 -1.0328
    9AIB   HB12  116  21.283  19.771  20.798 -1.3793 -1.0907  1.6180
    9AIB   HB13  117  21.146  19.661  20.761  0.8416 -1.4212 -1.6369
    9AIB    CB2  118  21.372  19.645  20.578  0.0479  0.8519  0.2223
    9AIB   HB21  119  21.409  19.658  20.682  0.3292  1.0376  0.1038
    9AIB   HB22  120  21.441  19.660  20.492  1.7112 -2.9053  0.6905
    9AIB   HB23  121  21.335  19.542  20.558 -0.3438  0.9777  0.2859
    9AIB      C  122  21.153  19.732  20.474 -1.3027 -0.2615  0.5661
    9AIB      O  123  21.135  19.624  20.420  0.1492 -0.1089  0.4115
    9AIB     NT  124  21.073  19.838  20.453  0.2681  0.0464 -0.0421
    9AIB    HNT  125  21.096  19.927  20.491 -0.3422  0.8016 -1.3469
    9AIB    CAT  126  20.956  19.834  20.360 -0.2953  0.2160 -0.5943
    9AIB    HT1  127  20.959  19.937  20.317  0.3864  0.9688  1.1650
    9AIB    HT2  128  20.860  19.812  20.411 -0.2707  1.5303  0.0718
    9AIB    HT3  129  20.982  19.766  20.276 -0.1583  1.3551 -1.5013
  42.09246  42.09246  42.09246
