Protein
   32
    1ACE   HH31    1   9.339   9.022   7.831  2.7163  0.3456 -1.6910
    1ACE    CH3    2   9.378   9.070   7.920  0.4012  0.1394 -0.4859
    1ACE   HH32    3   9.411   9.171   7.896  3.4257 -0.0630  2.1135
    1ACE   HH33    4   9.460   9.008   7.955 -0.2965  1.0524  3.2615
    1ACE      C    5   9.276   9.073   8.033 -0.3747 -0.1998 -0.7738
    1ACE      O    6   9.230   9.177   8.069 -0.1494 -0.5987 -0.4224
    2ALA      N    7   9.266   8.959   8.103  0.3504  0.4497  0.9233
    2ALA      H    8   9.309   8.875   8.068  0.0467  1.2806 -1.5562
    2ALA     CA    9   9.207   8.948   8.239  0.0914  0.1603 -1.4151
    2ALA     HA   10   9.108   8.993   8.238 -0.4740 -1.0404 -0.6860
    2ALA     CB   11   9.180   8.798   8.281  0.1521  0.1664 -0.1908
    2ALA    HB1   12   9.122   8.786   8.373 -1.0462  1.4672 -0.7319
    2ALA    HB2   13   9.121   8.756   8.200 -2.3880  1.1185  1.0616
    2ALA    HB3   14   9.275   8.747   8.293 -0.2578 -1.0466 -1.7047
    2ALA      C   15   9.248   9.042   8.362 -0.4767  0.2908  0.1472
    2ALA      O   16   9.246   8.996   8.477  0.3300 -0.1676  0.5375
    3ALA      N   17   9.301   9.162   8.334  0.6746 -0.0609 -0.3419
    3ALA      H   18   9.304   9.195   8.239  1.2688 -3.0560 -1.4589
    3ALA     CA   19   9.354   9.250   8.438  0.1408 -0.4263 -0.1578
    3ALA     HA   20   9.348   9.199   8.534 -0.4155  0.4688  0.2990
    3ALA     CB   21   9.502   9.265   8.407 -0.1772  0.1231  0.4175
    3ALA    HB1   22   9.516   9.280   8.299 -0.2955 -1.9458  0.0776
    3ALA    HB2   23   9.537   9.355   8.456  0.7017  1.7510 -2.9062
    3ALA    HB3   24   9.561   9.182   8.446 -0.2644 -0.2153 -0.1486
    3ALA      C   25   9.282   9.380   8.433 -0.2026 -0.6893  0.2398
    3ALA      O   26   9.279   9.440   8.328  0.4644 -0.3293 -0.2484
    4NME      N   27   9.231   9.423   8.550 -0.6995 -0.6560 -0.5301
    4NME      H   28   9.253   9.362   8.627  0.3071  0.5093  0.1360
    4NME    CH3   29   9.139   9.541   8.555  0.7197 -0.1054 -0.4764
    4NME   HH31   30   9.043   9.523   8.507  0.0171 -0.2891  0.9704
    4NME   HH32   31   9.120   9.559   8.661  1.9662  0.0450 -0.2727
    4NME   HH33   32   9.182   9.635   8.519 -3.1258  1.6257 -1.1427
  20.99041  20.99041  20.99041
