Protein
   42
    1ACE   HH31    1  10.164  10.482   7.181 -0.2945 -1.6902  1.4585
    1ACE    CH3    2  10.061  10.501   7.211 -0.5160  0.3001 -0.3478
    1ACE   HH32    3  10.061  10.518   7.319 -0.0638 -0.5427 -0.2057
    1ACE   HH33    4   9.999  10.413   7.200 -3.1514  1.9547  0.3198
    1ACE      C    5  10.005  10.619   7.143  0.4978  0.2234 -1.0414
    1ACE      O    6  10.051  10.732   7.161  0.0635  0.3256  0.0853
    2ALA      N    7   9.891  10.604   7.070  0.0134  0.2552  0.8962
    2ALA      H    8   9.852  10.512   7.053  0.0882  0.2132  0.9448
    2ALA     CA    9   9.822  10.713   7.005  0.2776 -0.2895 -0.4481
    2ALA     HA   10   9.832  10.797   7.073  1.3452 -1.5872  1.0670
    2ALA     CB   11   9.892  10.740   6.874 -0.4421 -0.4580 -0.8477
    2ALA    HB1   12   9.847  10.831   6.834 -0.7571  0.4321  1.3490
    2ALA    HB2   13   9.999  10.750   6.891 -0.6018 -1.9411  1.4455
    2ALA    HB3   14   9.879  10.652   6.811 -1.3361 -2.9261  2.4892
    2ALA      C   15   9.673  10.674   6.982 -0.7807 -0.6016 -0.1654
    2ALA      O   16   9.643  10.559   6.954  0.0139  0.2963  0.2928
    3ALA      N   17   9.579  10.765   7.024  0.8626  0.2713  0.2194
    3ALA      H   18   9.486  10.747   6.988  1.0162 -1.5320  0.5819
    3ALA     CA   19   9.596  10.902   7.073 -0.1297  0.1806 -0.7564
    3ALA     HA   20   9.689  10.955   7.054 -1.1492  2.4138 -0.0300
    3ALA     CB   21   9.483  10.981   7.012  0.0505 -0.2955  0.6178
    3ALA    HB1   22   9.381  10.945   7.029 -0.2146 -0.0760 -0.3960
    3ALA    HB2   23   9.493  11.084   7.046 -1.6662 -0.3741  1.4638
    3ALA    HB3   24   9.492  10.977   6.903 -3.0247  0.1129  0.2485
    3ALA      C   25   9.600  10.908   7.228  0.4221 -0.2893 -0.6615
    3ALA      O   26   9.570  11.014   7.290 -0.0983 -0.0439  0.2114
    4ALA      N   27   9.629  10.798   7.298  0.6699  0.0118 -0.3493
    4ALA      H   28   9.649  10.717   7.241 -0.2347 -1.5190  1.4105
    4ALA     CA   29   9.638  10.787   7.447 -0.6103  0.3032  0.2612
    4ALA     HA   30   9.701  10.698   7.456  0.0663  0.7948  0.4858
    4ALA     CB   31   9.713  10.897   7.515 -0.5698 -0.0153  0.0963
    4ALA    HB1   32   9.723  10.867   7.620  0.1250 -1.5683 -0.3705
    4ALA    HB2   33   9.817  10.909   7.484  0.0744 -1.8985  1.3584
    4ALA    HB3   34   9.660  10.992   7.519  0.6359  0.7085 -0.2993
    4ALA      C   35   9.507  10.737   7.514  0.1954  0.1115 -0.0480
    4ALA      O   36   9.507  10.651   7.600 -0.0285  0.7244 -0.9214
    5NME      N   37   9.397  10.799   7.462  1.1866  0.1289  0.0851
    5NME      H   38   9.405  10.848   7.374 -1.6168 -2.1816 -1.6720
    5NME    CH3   39   9.260  10.769   7.507 -0.4850 -0.2967  0.9914
    5NME   HH31   40   9.195  10.842   7.459  0.6785  0.5936  0.7182
    5NME   HH32   41   9.225  10.668   7.484 -1.6076  0.1400  0.7406
    5NME   HH33   42   9.252  10.779   7.615 -0.5169 -2.0748  1.1764
  20.91516  20.91516  20.91516
