Protein
   32
    1ACE   HH31    1   8.186   9.858   6.814 -0.4581  1.2052  0.1995
    1ACE    CH3    2   8.112   9.777   6.818  0.7731  0.0384  0.1650
    1ACE   HH32    3   8.133   9.699   6.745 -1.4653 -0.2970 -0.2019
    1ACE   HH33    4   8.015   9.817   6.790  0.2943 -0.6076  0.8632
    1ACE      C    5   8.101   9.719   6.955  0.4129  0.1637  0.0320
    1ACE      O    6   8.141   9.606   6.981 -0.4632 -0.2159  0.8799
    2ALA      N    7   8.046   9.807   7.043 -0.5299  0.6882 -0.2647
    2ALA      H    8   8.029   9.902   7.013  0.5105  0.1639 -2.6274
    2ALA     CA    9   8.039   9.787   7.189 -0.0072  0.1069  0.8900
    2ALA     HA   10   8.140   9.805   7.228  0.0869  1.1327  0.2287
    2ALA     CB   11   7.964   9.917   7.229 -0.5116 -0.0301 -0.1651
    2ALA    HB1   12   7.863   9.915   7.186 -0.0526  1.6388 -1.4299
    2ALA    HB2   13   7.957   9.929   7.337 -0.8847 -0.8290 -0.0941
    2ALA    HB3   14   8.023  10.001   7.192 -1.8881  0.5409 -1.1784
    2ALA      C   15   7.976   9.655   7.244 -0.2601 -0.5749 -0.0903
    2ALA      O   16   7.873   9.654   7.311  0.3430  0.5322 -0.1138
    3ALA      N   17   8.042   9.541   7.220 -0.0201 -0.2729  0.0065
    3ALA      H   18   8.119   9.544   7.155 -0.7551  1.0591 -0.8187
    3ALA     CA   19   8.013   9.399   7.256  0.8186  0.1309  0.3224
    3ALA     HA   20   7.983   9.388   7.361 -1.5833 -1.5216 -0.4196
    3ALA     CB   21   7.888   9.358   7.174 -0.2581  0.4035 -0.1060
    3ALA    HB1   22   7.848   9.268   7.222  1.1693 -0.2145 -0.0240
    3ALA    HB2   23   7.800   9.420   7.191 -0.6842  0.2114 -1.4245
    3ALA    HB3   24   7.908   9.335   7.069  0.9584  0.3362  0.1337
    3ALA      C   25   8.124   9.304   7.218  0.3156  0.2827 -0.2729
    3ALA      O   26   8.148   9.205   7.288  0.1600  0.5256 -0.3456
    4NME      N   27   8.189   9.323   7.100  0.1461  0.2307  0.3043
    4NME      H   28   8.169   9.408   7.051 -2.1997  0.1169  0.9885
    4NME    CH3   29   8.302   9.245   7.045  0.2880  0.5774 -0.3306
    4NME   HH31   30   8.393   9.302   7.031 -0.1946  1.6820  0.7910
    4NME   HH32   31   8.325   9.164   7.115 -0.2624  0.1840 -0.5942
    4NME   HH33   32   8.271   9.200   6.950  0.7317  0.7648 -0.5637
  20.99041  20.99041  20.99041
