Protein
   22
    1ACE   HH31    1   5.326   7.547   8.632 -3.5606  0.3666  2.4989
    1ACE    CH3    2   5.372   7.635   8.677  0.8875 -0.5759  0.3629
    1ACE   HH32    3   5.477   7.634   8.648  0.7591 -1.5302 -0.1469
    1ACE   HH33    4   5.364   7.626   8.785 -2.0807  0.6020  0.3577
    1ACE      C    5   5.310   7.769   8.632 -0.0183  0.2390  0.4527
    1ACE      O    6   5.372   7.877   8.640 -0.1156 -0.4609 -0.5259
    2ALA      N    7   5.187   7.757   8.576 -0.0741 -0.3679  0.2811
    2ALA      H    8   5.133   7.673   8.589  0.2158 -0.9374 -1.9965
    2ALA     CA    9   5.126   7.844   8.479 -0.5857 -0.1827 -0.1981
    2ALA     HA   10   5.076   7.929   8.525 -0.6149  1.3198 -2.8436
    2ALA     CB   11   5.238   7.905   8.390  0.3777 -0.0962  1.0177
    2ALA    HB1   12   5.193   7.939   8.297 -0.4065 -0.9945  1.0510
    2ALA    HB2   13   5.273   7.992   8.444  1.4475 -1.5866  2.8816
    2ALA    HB3   14   5.321   7.839   8.363 -0.2647 -0.0637 -1.1997
    2ALA      C   15   5.014   7.768   8.408  0.1406  0.6604 -0.0139
    2ALA      O   16   5.007   7.643   8.398 -0.1306 -0.0199 -0.4697
    3NME      N   17   4.931   7.847   8.346 -0.1257  0.0774  0.1257
    3NME      H   18   4.960   7.943   8.349  1.5862 -0.0764 -4.0777
    3NME    CH3   19   4.806   7.817   8.280  0.2988 -0.7561  0.0700
    3NME   HH31   20   4.758   7.909   8.247 -1.2818 -1.4766  0.2454
    3NME   HH32   21   4.826   7.752   8.194 -0.2570 -1.0107  0.1234
    3NME   HH33   22   4.730   7.782   8.351 -0.5383  2.7105  1.0429
  10.72160  10.72160  10.72160
