<<<<<<< HEAD
Protein
   42
    1ACE   HH31    1  14.918  13.346  13.440  0.1698  1.5432  1.3067
    1ACE    CH3    2  14.958  13.388  13.348  0.7014 -0.2212  0.7022
    1ACE   HH32    3  15.063  13.416  13.348  0.4781  0.6445 -0.1691
    1ACE   HH33    4  14.905  13.481  13.326  1.6096 -0.0614 -1.0261
    1ACE      C    5  14.956  13.290  13.236 -1.3235  0.1204  0.1488
    1ACE      O    6  14.860  13.210  13.229 -0.5092  0.4859 -0.3257
    2ALA      N    7  15.053  13.304  13.147 -0.0608 -0.3231  0.1691
    2ALA      H    8  15.134  13.360  13.173 -0.5953  0.4869  0.1365
    2ALA     CA    9  15.082  13.222  13.028 -0.4295 -0.1813 -0.1005
    2ALA     HA   10  15.163  13.268  12.971 -3.1005  0.1757 -4.0144
    2ALA     CB   11  15.133  13.082  13.075 -0.4350  0.3194  0.3548
    2ALA    HB1   12  15.225  13.084  13.134 -0.9617  0.1268  1.2097
    2ALA    HB2   13  15.049  13.029  13.120 -2.3935  0.7251 -2.5739
    2ALA    HB3   14  15.155  13.034  12.980 -2.2818 -0.1443  0.1323
    2ALA      C   15  14.958  13.217  12.923 -0.4989  0.0709 -0.4183
    2ALA      O   16  14.924  13.120  12.864 -0.9431  0.5497 -0.3739
    3ALA      N   17  14.873  13.323  12.930 -0.7585  0.4780 -0.4079
    3ALA      H   18  14.894  13.387  13.005  1.0757  1.9466 -2.0744
    3ALA     CA   19  14.736  13.344  12.876 -0.3779 -0.4803 -0.2704
    3ALA     HA   20  14.697  13.436  12.920 -0.5154 -0.8849  0.4615
    3ALA     CB   21  14.752  13.358  12.724 -0.3477 -0.7248  0.0254
    3ALA    HB1   22  14.788  13.261  12.689 -1.7304 -0.8787 -1.0454
    3ALA    HB2   23  14.657  13.391  12.683 -0.0860  1.8160  1.2369
    3ALA    HB3   24  14.819  13.443  12.711  1.8087 -2.0040  1.9990
    3ALA      C   25  14.634  13.236  12.909  0.5904  0.6591 -0.8636
    3ALA      O   26  14.530  13.236  12.846  0.2196  0.4880  0.2100
    4ALA      N   27  14.667  13.155  13.012  0.4105  0.1232  0.5025
    4ALA      H   28  14.761  13.166  13.049  0.3760 -0.1115  0.6565
    4ALA     CA   29  14.592  13.039  13.068  0.0500  0.8140 -0.6466
    4ALA     HA   30  14.634  13.035  13.168  0.3149 -2.8095 -0.7906
    4ALA     CB   31  14.439  13.055  13.078  0.1169 -0.3240 -0.2165
    4ALA    HB1   32  14.399  13.028  12.980 -1.7663 -0.8023  0.6151
    4ALA    HB2   33  14.407  12.982  13.152  1.6527 -1.3595 -0.5403
    4ALA    HB3   34  14.412  13.157  13.105 -2.1373 -1.7759  3.6868
    4ALA      C   35  14.638  12.908  13.009 -0.0952  0.8502 -0.2749
    4ALA      O   36  14.587  12.805  13.048 -0.2733 -0.6065  0.0599
    5NME      N   37  14.735  12.904  12.911  0.0439  0.0568  0.2402
    5NME      H   38  14.781  12.993  12.899  2.2963 -0.8090  1.8817
    5NME    CH3   39  14.786  12.783  12.847  0.3648  0.5838 -0.0289
    5NME   HH31   40  14.834  12.733  12.931 -1.8304 -0.5368  0.6415
    5NME   HH32   41  14.695  12.738  12.806 -0.4569  1.5463  0.6650
    5NME   HH33   42  14.850  12.812  12.764 -2.3825  2.3205 -1.6803
  20.91516  20.91516  20.91516
=======
Protein
   42
    1ACE   HH31    1  12.199   8.108   5.665  0.2158 -1.4732 -0.0716
    1ACE    CH3    2  12.135   8.075   5.747  0.2926 -1.2475  0.0810
    1ACE   HH32    3  12.075   8.155   5.790  1.8354  0.1811 -0.2978
    1ACE   HH33    4  12.197   8.024   5.821  1.9538 -1.2001 -1.2043
    1ACE      C    5  12.038   7.972   5.690 -0.1392  0.7288 -0.0843
    1ACE      O    6  12.052   7.929   5.569  0.0621  0.6583  0.0429
    2ALA      N    7  11.943   7.926   5.775 -0.5285 -0.4360  0.0722
    2ALA      H    8  11.943   7.966   5.867  4.0932 -0.5238  0.3357
    2ALA     CA    9  11.839   7.827   5.742 -0.1819  0.0596 -0.3424
    2ALA     HA   10  11.808   7.784   5.837  0.3625  1.3580  0.4484
    2ALA     CB   11  11.723   7.888   5.670 -0.1764 -0.8734  0.0376
    2ALA    HB1   12  11.755   7.931   5.576  2.6047 -3.2101 -0.2220
    2ALA    HB2   13  11.645   7.817   5.641  0.4649 -1.1175 -1.1733
    2ALA    HB3   14  11.669   7.961   5.730 -0.4814  0.3597 -1.6467
    2ALA      C   15  11.901   7.703   5.672 -0.1240  0.0356 -0.1522
    2ALA      O   16  11.950   7.613   5.736  0.6316  0.1684 -0.1569
    3ALA      N   17  11.906   7.697   5.540 -0.1329 -0.6378  0.0476
    3ALA      H   18  11.884   7.786   5.499 -0.8070 -0.6750  0.3144
    3ALA     CA   19  11.975   7.601   5.463 -0.2154 -0.5058  0.7954
    3ALA     HA   20  11.913   7.512   5.472 -1.5758  0.5840  3.3867
    3ALA     CB   21  11.966   7.661   5.320  0.3723  0.1855 -0.3243
    3ALA    HB1   22  12.025   7.753   5.319 -0.1330  0.5319  0.5038
    3ALA    HB2   23  12.007   7.597   5.242  0.2404 -0.9729  0.5315
    3ALA    HB3   24  11.864   7.690   5.295  0.2071  0.6406  0.8211
    3ALA      C   25  12.123   7.573   5.488 -0.1289 -0.0745 -0.8707
    3ALA      O   26  12.181   7.502   5.410  0.2577  0.3332  0.3530
    4ALA      N   27  12.191   7.634   5.588 -0.1386  0.6260 -0.4460
    4ALA      H   28  12.145   7.704   5.644 -1.2843 -0.7719  0.4318
    4ALA     CA   29  12.335   7.624   5.617  0.0881 -0.1099 -0.1985
    4ALA     HA   30  12.378   7.580   5.526 -2.1620 -0.7994 -0.9897
    4ALA     CB   31  12.387   7.767   5.637 -0.6774 -0.2835  0.2442
    4ALA    HB1   32  12.384   7.820   5.542  3.0050  1.3801  0.8795
    4ALA    HB2   33  12.340   7.816   5.723 -0.0141  2.3556 -0.7716
    4ALA    HB3   34  12.493   7.754   5.658 -1.2164 -1.1777  2.6360
    4ALA      C   35  12.366   7.526   5.733  0.5929  0.7041  0.0041
    4ALA      O   36  12.460   7.536   5.814  0.1467  0.5277  0.0254
    5NME      N   37  12.281   7.415   5.736 -0.0688 -0.0294 -0.0807
    5NME      H   38  12.198   7.417   5.678  0.0624 -0.9228 -0.3063
    5NME    CH3   39  12.268   7.330   5.853 -0.1317  0.1228  0.0898
    5NME   HH31   40  12.279   7.388   5.945 -0.5499  0.1183  0.1413
    5NME   HH32   41  12.168   7.289   5.851 -0.4460  0.8913 -1.7400
    5NME   HH33   42  12.342   7.251   5.846 -1.3937 -0.9549 -1.5385
  20.91516  20.91516  20.91516
>>>>>>> e505351e8895c44bcd67ad8436d05c0eaca14691
