Protein
   60
    1ACE   HH31    1  23.742  22.248  22.063  2.1571  1.2339  0.7370
    1ACE    CH3    2  23.769  22.240  21.958  0.2127  0.5405  0.2572
    1ACE   HH32    3  23.824  22.328  21.924  0.2335  0.1259 -0.8002
    1ACE   HH33    4  23.831  22.154  21.934 -1.8443 -0.9308 -0.1069
    1ACE      C    5  23.644  22.228  21.872  0.3518 -0.1792 -0.1138
    1ACE      O    6  23.635  22.307  21.773 -0.1319  0.0817  0.3134
    2TRP      N    7  23.550  22.131  21.895  0.1851  0.1652  0.2383
    2TRP      H    8  23.473  22.129  21.830  0.8111  0.0210 -0.5041
    2TRP     CA    9  23.560  22.025  21.993 -0.0604 -0.2838 -0.1093
    2TRP     HA   10  23.616  22.056  22.082  0.4299 -0.4875 -0.3410
    2TRP     CB   11  23.418  21.985  22.031  0.0470 -0.6601  0.3189
    2TRP    HB1   12  23.362  22.064  22.081  0.1263  0.2069 -0.9321
    2TRP    HB2   13  23.424  21.903  22.103  0.6453  0.5524  1.6909
    2TRP     CG   14  23.331  21.945  21.912  0.5506 -0.5644  0.7853
    2TRP    CD1   15  23.319  21.827  21.855 -0.6763  0.5780 -0.4535
    2TRP    HD1   16  23.365  21.734  21.885 -1.9846  0.6520  1.9704
    2TRP    NE1   17  23.238  21.828  21.746 -0.5426  0.0786 -0.2432
    2TRP    HE1   18  23.217  21.743  21.695 -0.3745 -1.0090  1.4222
    2TRP    CE2   19  23.197  21.957  21.715  0.5889  0.3818  0.3289
    2TRP    CZ2   20  23.123  22.022  21.618 -0.6803 -0.1288 -0.4179
    2TRP    HZ2   21  23.080  21.967  21.535 -2.6531  0.4573  0.1825
    2TRP    CH2   22  23.094  22.158  21.630  0.1112 -0.6289  0.0177
    2TRP    HH2   23  23.043  22.199  21.545 -1.6058 -1.1827  0.7474
    2TRP    CZ3   24  23.141  22.233  21.739  0.3370  0.1980 -0.3906
    2TRP    HZ3   25  23.122  22.339  21.748 -1.6583 -0.2070  0.7782
    2TRP    CE3   26  23.220  22.164  21.835  0.2006  0.2125 -0.1791
    2TRP    HE3   27  23.263  22.219  21.917  2.0299 -2.7468  1.0146
    2TRP    CD2   28  23.247  22.026  21.827  0.2548 -0.2293 -0.2924
    2TRP      C   29  23.649  21.903  21.945 -0.1805 -0.2162  0.0558
    2TRP      O   30  23.672  21.822  22.029 -0.0480  0.0241  0.2456
    3TRP      N   31  23.687  21.882  21.817 -0.2328 -0.0375  0.4647
    3TRP      H   32  23.755  21.808  21.805  0.3631  0.7567 -1.3251
    3TRP     CA   33  23.641  21.939  21.691 -0.0925  0.8708  0.0023
    3TRP     HA   34  23.553  22.002  21.696 -1.4225 -0.8283 -0.8863
    3TRP     CB   35  23.605  21.812  21.612  0.2896  1.0749  0.6595
    3TRP    HB1   36  23.689  21.742  21.606 -0.4301  0.3077 -1.6966
    3TRP    HB2   37  23.531  21.753  21.665  1.7870 -1.7827 -0.1337
    3TRP     CG   38  23.549  21.834  21.475 -0.1739 -0.0129  0.1501
    3TRP    CD1   39  23.438  21.908  21.454 -0.3586 -0.0672 -0.1335
    3TRP    HD1   40  23.378  21.959  21.527  0.2863  1.0290 -0.3600
    3TRP    NE1   41  23.403  21.903  21.317  0.8466 -0.0632 -0.3407
    3TRP    HE1   42  23.314  21.928  21.277  0.9844  2.1517  0.5754
    3TRP    CE2   43  23.490  21.814  21.252  0.3269 -0.1415  0.4841
    3TRP    CZ2   44  23.495  21.775  21.118 -0.3276  0.4920  0.8338
    3TRP    HZ2   45  23.415  21.800  21.049  1.5135  1.8113 -0.9000
    3TRP    CH2   46  23.601  21.696  21.080 -0.0064  0.6413  0.0586
    3TRP    HH2   47  23.612  21.678  20.974  0.6587  0.3929  0.1714
    3TRP    CZ3   48  23.707  21.661  21.168  0.1194  0.1122  0.2053
    3TRP    HZ3   49  23.801  21.616  21.139  0.1800 -1.3183  2.3250
    3TRP    CE3   50  23.690  21.702  21.298  0.0729  0.1663  0.0789
    3TRP    HE3   51  23.770  21.677  21.367  1.7321  3.7578 -0.3258
    3TRP    CD2   52  23.589  21.785  21.344  0.5389  0.0702 -0.1403
    3TRP      C   53  23.760  22.004  21.620 -0.4518  0.3246 -0.7333
    3TRP      O   54  23.881  21.988  21.652  0.1396  0.2567 -0.3122
    4NME      N   55  23.728  22.084  21.520 -0.0277  0.2227  0.1648
    4NME      H   56  23.629  22.096  21.500 -0.0580 -0.8751 -0.4105
    4NME    CH3   57  23.812  22.161  21.428  0.3033 -0.0639 -0.1862
    4NME   HH31   58  23.739  22.217  21.370  0.0838  0.2783  0.3963
    4NME   HH32   59  23.871  22.227  21.492 -1.1622  1.1717 -0.0184
    4NME   HH33   60  23.870  22.093  21.366  1.3983 -0.6014  1.3672
  41.12396  41.12396  41.12396
