Protein
   32
    1ACE   HH31    1   8.093  10.413  10.450  1.0585  0.0579 -0.4233
    1ACE    CH3    2   8.113  10.306  10.448  0.1993 -0.1228 -0.0487
    1ACE   HH32    3   8.031  10.246  10.410 -1.4160  1.2713  1.1299
    1ACE   HH33    4   8.134  10.280  10.551  1.4409  2.8254  0.5575
    1ACE      C    5   8.234  10.275  10.358  0.5330 -0.0794  0.1852
    1ACE      O    6   8.221  10.214  10.254  0.2429 -0.4068  0.1065
    2ALA      N    7   8.351  10.324  10.393  0.1282  0.7187  0.3276
    2ALA      H    8   8.360  10.365  10.485  0.7928 -0.5664  0.8627
    2ALA     CA    9   8.481  10.315  10.319  0.5491 -0.4272 -0.0779
    2ALA     HA   10   8.461  10.283  10.216 -1.3059  1.8455 -0.5013
    2ALA     CB   11   8.540  10.459  10.309  0.2902  0.0770  0.2837
    2ALA    HB1   12   8.486  10.522  10.239  2.2707  0.8818 -0.6049
    2ALA    HB2   13   8.541  10.506  10.407  1.9057  2.0858 -0.6149
    2ALA    HB3   14   8.647  10.455  10.286  0.5747  0.7061  1.4524
    2ALA      C   15   8.572  10.214  10.391  0.4907 -0.0508 -0.1153
    2ALA      O   16   8.665  10.252  10.462  0.3177  0.2682 -0.2248
    3ALA      N   17   8.543  10.087  10.361 -0.1484  0.3660  0.4381
    3ALA      H   18   8.480  10.067  10.285  3.6679 -0.7824 -2.7270
    3ALA     CA   19   8.616   9.975  10.413 -0.2445 -0.6444 -1.0275
    3ALA     HA   20   8.709  10.013  10.455 -0.6419 -1.0549  0.2455
    3ALA     CB   21   8.542   9.906  10.527 -0.1742  0.0755 -0.1531
    3ALA    HB1   22   8.438   9.922  10.498  0.4198  2.0701 -1.2921
    3ALA    HB2   23   8.582   9.804  10.528  0.1783  0.1880 -1.5082
    3ALA    HB3   24   8.559   9.943  10.628 -0.1041 -2.0326  0.6703
    3ALA      C   25   8.684   9.882  10.305  0.5758  0.5280 -0.0823
    3ALA      O   26   8.804   9.868  10.285 -0.5816 -0.0897 -0.5119
    4NME      N   27   8.595   9.807  10.241 -0.6026  0.2508 -0.0323
    4NME      H   28   8.503   9.811  10.282  0.4702  0.6409  2.4764
    4NME    CH3   29   8.628   9.730  10.118  0.3281  0.1878 -0.0511
    4NME   HH31   30   8.696   9.648  10.142  0.2346  0.3187  0.6753
    4NME   HH32   31   8.536   9.701  10.068  0.6114  1.1867 -1.1563
    4NME   HH33   32   8.679   9.789  10.042  0.8815  1.6053  1.3598
  20.99041  20.99041  20.99041
