Protein
   42
    1ACE   HH31    1   6.420  11.852   9.957  0.2055  1.0859  0.2667
    1ACE    CH3    2   6.349  11.924   9.998 -0.6340  0.1958  0.4145
    1ACE   HH32    3   6.411  12.000  10.045  1.0018 -0.4204 -0.6293
    1ACE   HH33    4   6.298  11.871  10.079  3.6777 -1.2771  2.4748
    1ACE      C    5   6.260  11.980   9.892 -0.0355  0.0832  0.3077
    1ACE      O    6   6.249  11.911   9.792 -0.6135  0.2141 -0.5032
    2ALA      N    7   6.210  12.102   9.904 -0.3804  0.0223  0.2820
    2ALA      H    8   6.243  12.154   9.985  1.3668 -0.1766 -0.2749
    2ALA     CA    9   6.121  12.169   9.807 -0.2094 -0.8152 -0.5773
    2ALA     HA   10   6.060  12.234   9.870  1.4101 -1.0134  1.2925
    2ALA     CB   11   6.210  12.262   9.721 -0.0607  0.0891 -0.5225
    2ALA    HB1   12   6.250  12.343   9.781 -0.4330  0.2563 -0.4936
    2ALA    HB2   13   6.289  12.198   9.680 -0.5515  0.4603 -2.1583
    2ALA    HB3   14   6.153  12.300   9.636 -0.6328 -2.5760 -1.4496
    2ALA      C   15   6.026  12.084   9.727  0.2241 -0.1519  0.2125
    2ALA      O   16   5.996  12.107   9.615  0.2509  0.0875  0.1744
    3ALA      N   17   5.975  11.976   9.785  0.3958  0.1246  0.0415
    3ALA      H   18   5.996  11.959   9.882  0.1462 -0.6856 -0.0340
    3ALA     CA   19   5.864  11.900   9.727  0.2075  0.5896  0.0973
    3ALA     HA   20   5.905  11.852   9.638 -0.1258  0.7384 -0.1388
    3ALA     CB   21   5.812  11.791   9.815  0.9646  0.7377 -0.1542
    3ALA    HB1   22   5.878  11.776   9.901 -0.2900 -1.2970  0.5460
    3ALA    HB2   23   5.716  11.810   9.864  1.5686  1.9535  0.6144
    3ALA    HB3   24   5.798  11.705   9.750 -1.1690 -0.0793  1.2495
    3ALA      C   25   5.747  11.984   9.662 -0.0825 -0.3561 -0.5732
    3ALA      O   26   5.704  12.077   9.723 -0.1642 -0.5657  0.5835
    4ALA      N   27   5.692  11.934   9.548 -0.1201 -0.0292 -0.2987
    4ALA      H   28   5.749  11.859   9.512  0.0635 -0.7965  1.4805
    4ALA     CA   29   5.610  12.021   9.452  0.0732 -0.7068 -0.9316
    4ALA     HA   30   5.640  11.977   9.357  1.1266 -2.0761  0.0059
    4ALA     CB   31   5.461  11.991   9.474  0.0250 -0.2349  0.2448
    4ALA    HB1   32   5.401  12.064   9.420 -0.5797 -0.7841  0.1769
    4ALA    HB2   33   5.444  11.890   9.437 -0.2075  0.4631 -1.6924
    4ALA    HB3   34   5.431  11.998   9.578 -1.1600 -1.3134  0.0033
    4ALA      C   35   5.651  12.178   9.447  0.0984 -0.4439 -0.4142
    4ALA      O   36   5.575  12.266   9.412 -0.2075  0.4447  0.9152
    5NME      N   37   5.779  12.216   9.480  0.5736  0.2806  0.4149
    5NME      H   38   5.837  12.155   9.535  0.5930  0.7696  0.9557
    5NME    CH3   39   5.834  12.351   9.457  0.3002 -0.2685 -0.0784
    5NME   HH31   40   5.876  12.366   9.557  0.7033 -1.2386 -0.0954
    5NME   HH32   41   5.925  12.350   9.398  1.2815 -2.0777  1.3489
    5NME   HH33   42   5.757  12.425   9.433  0.7384  1.1049  2.3689
  20.91516  20.91516  20.91516
