Protein
   32
    1ACE   HH31    1  10.361   6.922   7.396 -0.5888  1.8443 -1.1218
    1ACE    CH3    2  10.451   6.974   7.432  0.2800 -0.3063  0.0101
    1ACE   HH32    3  10.533   6.973   7.361 -1.2618 -0.1524 -1.8650
    1ACE   HH33    4  10.472   6.932   7.530 -0.0830  1.3886  0.8584
    1ACE      C    5  10.412   7.127   7.447 -0.0955 -0.0620  0.2344
    1ACE      O    6  10.318   7.181   7.387  0.5405  0.2836  0.4928
    2ALA      N    7  10.490   7.200   7.529 -0.2691  0.3469 -0.5123
    2ALA      H    8  10.565   7.148   7.571  0.1175  2.0336  0.9968
    2ALA     CA    9  10.493   7.349   7.541 -0.9444  0.0028  0.5085
    2ALA     HA   10  10.392   7.387   7.548 -0.6292  1.2974 -1.3473
    2ALA     CB   11  10.580   7.382   7.662 -0.4393  0.2419 -0.0895
    2ALA    HB1   12  10.541   7.324   7.745  0.2579 -1.8976 -1.1821
    2ALA    HB2   13  10.686   7.374   7.640 -0.0531  1.6454  1.0899
    2ALA    HB3   14  10.566   7.485   7.696  1.1141  0.3928  0.1186
    2ALA      C   15  10.541   7.423   7.415  0.0571  0.5644  0.4867
    2ALA      O   16  10.615   7.521   7.420 -0.2218 -0.1854 -0.0920
    3ALA      N   17  10.491   7.380   7.294 -0.5298 -0.2660 -0.2285
    3ALA      H   18  10.418   7.311   7.295  0.2128 -1.0711  0.8540
    3ALA     CA   19  10.527   7.454   7.175 -0.8174  0.1949 -0.1205
    3ALA     HA   20  10.629   7.486   7.196 -1.0913  1.2876 -0.4196
    3ALA     CB   21  10.540   7.358   7.057 -0.0935 -0.2209  0.4546
    3ALA    HB1   22  10.595   7.267   7.079  1.3756 -0.0712 -2.1491
    3ALA    HB2   23  10.447   7.339   7.004  0.2283  3.0535 -1.6032
    3ALA    HB3   24  10.605   7.407   6.985 -0.3028 -0.5701  0.0274
    3ALA      C   25  10.456   7.582   7.150 -0.1428 -0.7348  0.3619
    3ALA      O   26  10.335   7.584   7.130  0.5448 -0.0597  0.2454
    4NME      N   27  10.525   7.697   7.158  0.0735  0.0616 -0.1290
    4NME      H   28  10.626   7.689   7.163 -0.0486 -2.2883 -0.2289
    4NME    CH3   29  10.480   7.830   7.123  0.1562  0.6873  0.5627
    4NME   HH31   30  10.407   7.822   7.043  1.1029  0.4610 -0.3018
    4NME   HH32   31  10.425   7.878   7.204 -0.0340  1.1139  0.1853
    4NME   HH33   32  10.560   7.896   7.088  1.9687 -1.4941  0.3696
  20.99041  20.99041  20.99041
