Protein
   22
    1ACE   HH31    1   9.392   2.049   4.308 -0.8037 -1.8474 -0.3109
    1ACE    CH3    2   9.330   2.090   4.229 -0.1503 -0.5812 -0.1984
    1ACE   HH32    3   9.385   2.121   4.140 -1.1277  0.0015 -0.6235
    1ACE   HH33    4   9.285   2.178   4.274  0.8559  0.1516 -0.6141
    1ACE      C    5   9.229   1.985   4.184  0.1829 -0.3653 -0.1061
    1ACE      O    6   9.118   1.992   4.236 -0.1632  0.3049 -0.4195
    2ALA      N    7   9.273   1.895   4.097  0.9916  0.3037  0.0221
    2ALA      H    8   9.369   1.888   4.067  1.5884  0.5709  1.7386
    2ALA     CA    9   9.187   1.799   4.027 -0.2537 -0.0474 -0.3394
    2ALA     HA   10   9.118   1.746   4.093 -1.9246 -0.2114 -2.1336
    2ALA     CB   11   9.108   1.875   3.926  0.2488  0.2195 -0.2864
    2ALA    HB1   12   9.169   1.897   3.838 -1.0176 -0.9810 -1.5230
    2ALA    HB2   13   9.018   1.827   3.886 -0.3834 -0.8429  2.1895
    2ALA    HB3   14   9.080   1.975   3.959  1.3570  0.6130 -0.4942
    2ALA      C   15   9.264   1.691   3.954 -0.6977 -0.6925 -0.3216
    2ALA      O   16   9.385   1.673   3.987 -0.4432  0.2814  0.1129
    3NME      N   17   9.202   1.616   3.865 -0.0210 -0.1014 -0.1813
    3NME      H   18   9.108   1.645   3.840  0.2867  1.1968  0.0898
    3NME    CH3   19   9.268   1.518   3.772  0.8423  0.3125 -0.1132
    3NME   HH31   20   9.374   1.537   3.751  1.2982 -1.3359  0.4972
    3NME   HH32   21   9.261   1.421   3.823 -2.3906  0.3998 -0.2084
    3NME   HH33   22   9.208   1.517   3.681 -1.3774  0.6041  1.2723
  10.72160  10.72160  10.72160
