<<<<<<< HEAD
Protein
   42
    1ACE   HH31    1  17.444   9.147   9.308 -0.5883 -0.6975 -1.0553
    1ACE    CH3    2  17.533   9.125   9.249 -0.0488  0.2030 -0.6045
    1ACE   HH32    3  17.623   9.125   9.309  0.8414 -0.3249 -1.8983
    1ACE   HH33    4  17.538   9.193   9.163 -0.0237 -1.2114 -1.7711
    1ACE      C    5  17.520   8.985   9.187 -0.4504 -0.2625 -0.0774
    1ACE      O    6  17.414   8.919   9.200 -0.5492 -0.1271 -0.2406
    2ALA      N    7  17.630   8.945   9.124  0.4995  0.1063 -0.2214
    2ALA      H    8  17.694   9.020   9.106 -0.4271  0.8181 -0.5999
    2ALA     CA    9  17.642   8.819   9.059 -0.2436 -0.3877 -0.1164
    2ALA     HA   10  17.554   8.800   8.996 -0.2115  0.5595 -0.4722
    2ALA     CB   11  17.767   8.818   8.963 -0.5278  0.2466 -0.1725
    2ALA    HB1   12  17.760   8.885   8.878 -0.3783 -0.2815 -0.6082
    2ALA    HB2   13  17.857   8.844   9.018 -0.4793  1.9529 -0.9883
    2ALA    HB3   14  17.780   8.716   8.926 -1.1782  0.2180 -0.3422
    2ALA      C   15  17.656   8.706   9.166 -0.0974 -0.1732 -0.1218
    2ALA      O   16  17.750   8.702   9.252  0.1799 -0.8397  0.5184
    3ALA      N   17  17.551   8.622   9.174  0.2344 -0.7891 -0.1029
    3ALA      H   18  17.468   8.654   9.126  0.6796  0.6726  0.0150
    3ALA     CA   19  17.526   8.541   9.296 -0.7088 -0.7267 -0.1362
    3ALA     HA   20  17.424   8.505   9.286 -0.9148 -0.0190 -0.7120
    3ALA     CB   21  17.606   8.413   9.287  0.1655 -0.1065 -0.2878
    3ALA    HB1   22  17.598   8.351   9.376  0.3051  2.4952  1.6488
    3ALA    HB2   23  17.585   8.360   9.194 -1.2651 -0.0352 -0.0315
    3ALA    HB3   24  17.710   8.441   9.270 -0.2072  0.9048 -0.9668
    3ALA      C   25  17.542   8.615   9.431  0.0862 -0.6053  0.4011
    3ALA      O   26  17.567   8.558   9.536  0.0230  0.3384 -0.4591
    4ALA      N   27  17.510   8.746   9.431 -0.4330  0.5462 -0.1042
    4ALA      H   28  17.476   8.785   9.344 -2.1001 -0.1851  0.1832
    4ALA     CA   29  17.559   8.842   9.534  0.0329  0.2545  0.1238
    4ALA     HA   30  17.537   8.939   9.488 -0.0342  0.1466 -0.0691
    4ALA     CB   31  17.477   8.832   9.667 -0.9701 -0.0655  0.1670
    4ALA    HB1   32  17.483   8.918   9.734  0.3912 -1.0839  1.4126
    4ALA    HB2   33  17.372   8.816   9.644 -0.9872 -1.8683  1.3197
    4ALA    HB3   34  17.502   8.746   9.729 -0.6182  1.3986  2.1743
    4ALA      C   35  17.709   8.865   9.562  0.1041 -0.7131  0.4147
    4ALA      O   36  17.754   8.976   9.548  0.5286 -0.5703  0.3664
    5NME      N   37  17.788   8.766   9.595  0.0309 -0.1567  0.3214
    5NME      H   38  17.742   8.679   9.619 -0.3847  0.6483  2.7439
    5NME    CH3   39  17.924   8.775   9.641  0.4721  0.1366 -0.3271
    5NME   HH31   40  17.917   8.749   9.746 -0.1570  0.4784 -0.2792
    5NME   HH32   41  17.987   8.700   9.594 -0.8773 -1.6717  0.6155
    5NME   HH33   42  17.961   8.876   9.621 -0.0840  1.2920  3.7033
  20.91516  20.91516  20.91516
=======
Protein
   42
    1ACE   HH31    1   5.509  18.507  10.839 -0.4462  2.1691  0.9340
    1ACE    CH3    2   5.489  18.481  10.943  0.4951  0.2297  0.6768
    1ACE   HH32    3   5.399  18.419  10.936  0.6041  0.2621 -2.3725
    1ACE   HH33    4   5.478  18.563  11.013 -0.5000 -0.0236  0.8373
    1ACE      C    5   5.597  18.386  10.986  0.4214 -0.0452 -0.3162
    1ACE      O    6   5.652  18.317  10.908  0.7950 -0.1798  0.5306
    2ALA      N    7   5.625  18.381  11.116  0.0683 -0.2448  0.8536
    2ALA      H    8   5.587  18.443  11.187  1.3282 -0.6737  1.9421
    2ALA     CA    9   5.740  18.313  11.170 -0.2713 -0.4552 -0.5298
    2ALA     HA   10   5.756  18.222  11.113 -0.8896 -0.1635 -1.1849
    2ALA     CB   11   5.869  18.399  11.161  0.8399 -0.1694  0.2814
    2ALA    HB1   12   5.852  18.495  11.211 -2.7847 -0.6882  0.2767
    2ALA    HB2   13   5.953  18.348  11.208  0.0886 -0.2618  1.5526
    2ALA    HB3   14   5.883  18.425  11.056 -0.9352  1.1212  0.3143
    2ALA      C   15   5.712  18.271  11.317 -0.3404 -0.5894 -0.0883
    2ALA      O   16   5.780  18.308  11.414  0.4673 -0.2819 -0.4932
    3ALA      N   17   5.597  18.202  11.339 -0.5771 -0.5476  0.1050
    3ALA      H   18   5.553  18.166  11.255  1.5136 -3.8963  0.2468
    3ALA     CA   19   5.527  18.157  11.460 -0.3262  0.5446  0.3160
    3ALA     HA   20   5.466  18.072  11.429  1.8764 -0.9434 -0.2516
    3ALA     CB   21   5.616  18.104  11.577 -0.2427 -0.4220  0.1660
    3ALA    HB1   22   5.557  18.058  11.657  1.4675 -0.2431  1.5900
    3ALA    HB2   23   5.692  18.035  11.541  3.1009  2.3042  1.4154
    3ALA    HB3   24   5.673  18.187  11.618  2.1282 -0.8589 -2.0526
    3ALA      C   25   5.423  18.264  11.487  0.0384  0.4766 -0.7234
    3ALA      O   26   5.303  18.239  11.476  1.0847 -0.3105  0.7629
    4ALA      N   27   5.465  18.394  11.517  0.0528  1.0415  0.3848
    4ALA      H   28   5.565  18.409  11.518 -0.0739  2.1816 -1.2774
    4ALA     CA   29   5.373  18.510  11.524 -0.1145 -0.3447  0.2201
    4ALA     HA   30   5.270  18.477  11.522 -0.3077  0.2195 -2.1703
    4ALA     CB   31   5.411  18.593  11.646 -0.7281 -0.6942  0.0338
    4ALA    HB1   32   5.514  18.628  11.640 -0.9671  0.3736  1.4476
    4ALA    HB2   33   5.342  18.671  11.678  0.8615  0.4854  0.7703
    4ALA    HB3   34   5.420  18.517  11.725  0.6279  1.5469  2.1984
    4ALA      C   35   5.394  18.597  11.397  1.0159  0.0282  0.4237
    4ALA      O   36   5.474  18.570  11.313  0.1514 -0.7976 -0.0020
    5NME      N   37   5.314  18.708  11.388 -0.1696 -0.3701  0.3691
    5NME      H   38   5.241  18.713  11.458  0.1265 -1.1435  0.7428
    5NME    CH3   39   5.319  18.806  11.277 -0.9519 -0.5830  0.7408
    5NME   HH31   40   5.344  18.907  11.310  0.1936 -0.6684  0.2156
    5NME   HH32   41   5.392  18.768  11.206 -0.1920  0.2922  1.0157
    5NME   HH33   42   5.228  18.818  11.218  0.3087  2.6550 -0.7925
  20.91516  20.91516  20.91516
>>>>>>> e505351e8895c44bcd67ad8436d05c0eaca14691
