Protein
   42
    1ACE   HH31    1  13.911   5.806   4.283 -1.7357 -2.0931  0.7241
    1ACE    CH3    2  13.977   5.743   4.225 -0.6077 -0.2339 -0.1138
    1ACE   HH32    3  13.961   5.645   4.271 -2.2018  0.0457 -0.0528
    1ACE   HH33    4  14.068   5.799   4.246 -1.6715  1.2275  0.6399
    1ACE      C    5  13.940   5.736   4.071 -0.2271  0.6242  0.5825
    1ACE      O    6  13.828   5.769   4.033 -0.6380 -0.3592  0.4396
    2ALA      N    7  14.024   5.678   3.986 -0.0403 -0.5705  0.8871
    2ALA      H    8  14.115   5.653   4.021  0.6645  0.1303 -0.3974
    2ALA     CA    9  13.989   5.653   3.847 -0.1434 -0.3973  0.4768
    2ALA     HA   10  13.954   5.747   3.804 -1.7280 -0.1616  2.1578
    2ALA     CB   11  14.113   5.605   3.763 -0.4726 -0.3724 -0.4472
    2ALA    HB1   12  14.085   5.587   3.659  0.9263 -0.5698 -0.8075
    2ALA    HB2   13  14.184   5.687   3.750 -0.2549 -0.2339  1.4028
    2ALA    HB3   14  14.158   5.518   3.812 -0.6837 -0.7146 -0.8600
    2ALA      C   15  13.873   5.555   3.825 -0.2727  0.4462 -0.3817
    2ALA      O   16  13.892   5.435   3.835 -0.5365 -0.1088  0.7224
    3ALA      N   17  13.753   5.615   3.808  0.8663  0.1100 -0.3213
    3ALA      H   18  13.756   5.715   3.793  0.0331  0.0068 -1.2930
    3ALA     CA   19  13.622   5.563   3.796  0.9751  0.1630 -0.2876
    3ALA     HA   20  13.602   5.520   3.698 -2.2602  2.5433 -0.8580
    3ALA     CB   21  13.603   5.456   3.907  0.5605  0.4321  0.7734
    3ALA    HB1   22  13.684   5.386   3.888  0.4680  0.8768 -1.5611
    3ALA    HB2   23  13.610   5.505   4.004 -0.7483  0.7709  0.7213
    3ALA    HB3   24  13.513   5.395   3.896  0.7303  0.1077  1.0850
    3ALA      C   25  13.514   5.668   3.820 -0.2581  0.5105  0.4254
    3ALA      O   26  13.419   5.686   3.743 -0.2647  0.7022 -0.8633
    4ALA      N   27  13.523   5.751   3.925 -0.0166  0.3428 -0.4689
    4ALA      H   28  13.601   5.730   3.986 -0.8798  0.2944  0.6631
    4ALA     CA   29  13.482   5.895   3.914 -0.3853  0.2989 -0.3189
    4ALA     HA   30  13.375   5.897   3.937  0.2690  0.0449  3.2380
    4ALA     CB   31  13.562   5.984   4.011  0.5641  0.3450 -0.0412
    4ALA    HB1   32  13.519   6.083   3.993 -0.3474 -0.0871 -0.3124
    4ALA    HB2   33  13.535   5.944   4.109  1.0061  0.3458  0.0841
    4ALA    HB3   34  13.667   5.988   3.983  0.2842 -2.2010 -1.7808
    4ALA      C   35  13.491   5.955   3.776  0.0557 -0.1360 -0.2082
    4ALA      O   36  13.591   5.937   3.707  0.6152  0.2384  0.1945
    5NME      N   37  13.389   6.037   3.752  0.4336  0.1138  0.1700
    5NME      H   38  13.323   6.049   3.828 -1.4944 -0.9448 -1.2394
    5NME    CH3   39  13.365   6.118   3.627 -0.8091  0.1596  1.0610
    5NME   HH31   40  13.431   6.204   3.627 -0.8777  0.2335 -0.2423
    5NME   HH32   41  13.386   6.067   3.533 -0.9865  0.4037  0.8839
    5NME   HH33   42  13.268   6.168   3.631  0.6731  3.7927 -2.1049
  20.91516  20.91516  20.91516
