Protein
   32
    1ACE   HH31    1   7.552  10.633   9.450  0.3516 -0.3503 -0.9891
    1ACE    CH3    2   7.648  10.659   9.494  0.0234 -0.3141 -0.2845
    1ACE   HH32    3   7.639  10.637   9.601 -0.1538  0.6567 -0.0904
    1ACE   HH33    4   7.676  10.763   9.481 -1.2301  0.2937  1.4084
    1ACE      C    5   7.744  10.563   9.433  0.0459  0.1957 -0.4670
    1ACE      O    6   7.707  10.494   9.337  0.0351  0.3404  0.0785
    2ALA      N    7   7.867  10.548   9.489  0.8400  0.2588 -0.1215
    2ALA      H    8   7.891  10.610   9.565 -0.7840  2.0730 -1.0311
    2ALA     CA    9   7.966  10.450   9.444 -0.7597 -0.4474  0.5055
    2ALA     HA   10   7.941  10.409   9.346  0.8192 -0.2190 -0.0341
    2ALA     CB   11   8.104  10.518   9.435  0.4372 -0.3500  0.1469
    2ALA    HB1   12   8.139  10.572   9.523 -0.9161  0.8128  0.0191
    2ALA    HB2   13   8.178  10.444   9.404  0.8960  0.5462 -0.9856
    2ALA    HB3   14   8.099  10.592   9.354 -1.8244  0.8810  1.3256
    2ALA      C   15   7.979  10.335   9.546 -0.2874 -0.2593  0.5258
    2ALA      O   16   8.057  10.341   9.637 -0.0196  0.1999 -0.3456
    3ALA      N   17   7.899  10.232   9.528 -0.5649  0.3219 -0.7775
    3ALA      H   18   7.845  10.230   9.443 -0.2588  1.9794 -1.0347
    3ALA     CA   19   7.902  10.113   9.612  0.2615  0.5385  0.1206
    3ALA     HA   20   7.900  10.133   9.720 -0.4323  1.1013  0.0133
    3ALA     CB   21   7.766  10.041   9.591  0.4817 -0.8205 -0.1636
    3ALA    HB1   22   7.686  10.106   9.626 -1.2734 -2.1424 -1.5295
    3ALA    HB2   23   7.757  10.026   9.484  0.7498 -0.1947 -0.2787
    3ALA    HB3   24   7.749   9.947   9.644  0.8086  0.3233  2.1028
    3ALA      C   25   8.030  10.029   9.582  1.0990  0.3468 -0.2981
    3ALA      O   26   8.049   9.970   9.473 -0.5627  0.8213  0.5109
    4NME      N   27   8.127  10.034   9.672 -0.3340 -0.2936  0.3002
    4NME      H   28   8.114  10.094   9.753 -0.8436  0.2022 -0.1439
    4NME    CH3   29   8.254   9.974   9.658 -0.6039 -0.4244 -0.5986
    4NME   HH31   30   8.322  10.058   9.671  0.6672 -1.7789  2.1309
    4NME   HH32   31   8.277   9.894   9.729  2.4420 -1.2829 -2.4248
    4NME   HH33   32   8.264   9.934   9.557  0.1507 -0.6699 -0.4352
  20.99041  20.99041  20.99041
