Protein
   42
    1ACE   HH31    1  13.446  10.487   3.428  0.9644  0.0476  2.3158
    1ACE    CH3    2  13.408  10.576   3.479 -0.6162  0.7597  0.0419
    1ACE   HH32    3  13.492  10.623   3.529 -0.4740  1.5544 -0.8834
    1ACE   HH33    4  13.328  10.557   3.551  0.2281 -2.1327  0.3472
    1ACE      C    5  13.357  10.665   3.370 -0.5010  1.1726 -0.2941
    1ACE      O    6  13.248  10.641   3.316 -0.2742  0.0757 -0.4927
    2ALA      N    7  13.425  10.777   3.342  0.3339  0.2290  0.2214
    2ALA      H    8  13.507  10.804   3.394  0.2525 -0.9926  1.0144
    2ALA     CA    9  13.387  10.875   3.230 -0.1366  0.4900 -0.3627
    2ALA     HA   10  13.469  10.945   3.217  2.0447 -1.6835  1.0471
    2ALA     CB   11  13.384  10.811   3.088  0.0883  0.2816 -0.2140
    2ALA    HB1   12  13.478  10.756   3.087 -0.9037 -1.4505 -0.5488
    2ALA    HB2   13  13.306  10.737   3.077 -1.6489  2.1864 -1.4799
    2ALA    HB3   14  13.373  10.888   3.011 -0.1636  0.8808  0.4017
    2ALA      C   15  13.265  10.964   3.246  0.2492  0.4402  0.1962
    2ALA      O   16  13.250  11.068   3.185 -0.2855  0.2029  0.2422
    3ALA      N   17  13.165  10.911   3.316 -0.6976  0.1901  0.7583
    3ALA      H   18  13.169  10.812   3.334 -4.6245  0.1882  2.7273
    3ALA     CA   19  13.057  10.978   3.386  0.0170  0.0940 -0.2880
    3ALA     HA   20  12.994  11.022   3.309 -0.4462  0.6919  0.4094
    3ALA     CB   21  12.961  10.879   3.456  0.0736 -0.0902 -0.4173
    3ALA    HB1   22  13.017  10.801   3.507 -0.3700 -0.3888 -0.3830
    3ALA    HB2   23  12.895  10.935   3.522  1.1245  0.4007  0.2609
    3ALA    HB3   24  12.905  10.819   3.385 -0.2402 -1.3528  0.8610
    3ALA      C   25  13.121  11.086   3.486  0.0986 -0.1143 -0.3107
    3ALA      O   26  13.217  11.049   3.561 -0.1325  0.4115 -0.5611
    4ALA      N   27  13.072  11.212   3.479 -0.3784  0.1050  1.1085
    4ALA      H   28  12.994  11.218   3.416  0.1430 -0.8205  0.3449
    4ALA     CA   29  13.135  11.338   3.520 -0.1863 -0.5426  0.0491
    4ALA     HA   30  13.128  11.402   3.432 -1.6979 -2.1864 -1.0849
    4ALA     CB   31  13.053  11.401   3.632 -0.1004  0.4896  1.0449
    4ALA    HB1   32  12.951  11.422   3.603 -0.0602  0.1981  0.6776
    4ALA    HB2   33  13.047  11.334   3.718  1.9244 -1.1955 -0.0180
    4ALA    HB3   34  13.099  11.492   3.670 -0.3754 -0.7601  4.8749
    4ALA      C   35  13.289  11.324   3.557  0.3751 -0.5411  0.7121
    4ALA      O   36  13.332  11.352   3.666 -0.0278 -0.3697  0.0214
    5NME      N   37  13.370  11.284   3.454 -0.4540  0.6244  0.3520
    5NME      H   38  13.320  11.256   3.371 -2.4984 -1.0435  2.0258
    5NME    CH3   39  13.511  11.265   3.453  0.0352 -0.5825 -0.0774
    5NME   HH31   40  13.529  11.176   3.393  2.0041 -0.8024  0.7639
    5NME   HH32   41  13.554  11.350   3.399  0.2938 -0.9067 -0.3921
    5NME   HH33   42  13.557  11.257   3.551 -1.9953  0.9502  1.0728
  20.91516  20.91516  20.91516
