Protein
   42
    1ACE   HH31    1   8.677  10.337  17.404 -0.0837 -2.0272  0.8994
    1ACE    CH3    2   8.774  10.372  17.438 -0.3758 -0.0185 -0.2212
    1ACE   HH32    3   8.766  10.345  17.543 -0.7053 -0.4751 -0.3607
    1ACE   HH33    4   8.795  10.479  17.432  0.6406 -0.2015 -0.1137
    1ACE      C    5   8.888  10.288  17.369  0.1573 -0.8724 -0.7455
    1ACE      O    6   8.977  10.232  17.431  0.5452  0.1608 -0.2411
    2ALA      N    7   8.875  10.276  17.238 -0.4082 -0.3061  0.6008
    2ALA      H    8   8.800  10.334  17.202  0.8980  1.0981  0.0592
    2ALA     CA    9   8.972  10.220  17.146 -0.0535 -0.0474 -0.4702
    2ALA     HA   10   9.069  10.235  17.192 -0.1657  2.0400 -0.8013
    2ALA     CB   11   8.951  10.070  17.113  0.4810  0.5135  0.6850
    2ALA    HB1   12   8.857  10.046  17.064 -0.5281  0.4949  2.5727
    2ALA    HB2   13   9.036  10.022  17.063  1.3532  0.3063  2.2805
    2ALA    HB3   14   8.929  10.023  17.209 -1.9480  0.0851 -0.0178
    2ALA      C   15   8.978  10.307  17.018  0.1403  0.1301  0.8490
    2ALA      O   16   8.906  10.405  17.008  0.4867 -0.5477 -0.2548
    3ALA      N   17   9.046  10.264  16.911  0.2832  0.0367  0.4839
    3ALA      H   18   9.109  10.186  16.923  2.3022  1.5682  0.4213
    3ALA     CA   19   9.036  10.312  16.774  0.1364  0.2905  1.1041
    3ALA     HA   20   8.934  10.342  16.749  0.9681  0.4041 -2.6780
    3ALA     CB   21   9.131  10.431  16.752 -0.1088  0.0602 -0.0707
    3ALA    HB1   22   9.111  10.459  16.649 -1.4299  0.4338  0.2711
    3ALA    HB2   23   9.106  10.514  16.819  0.3876  0.5193 -0.4412
    3ALA    HB3   24   9.232  10.400  16.778 -0.1665  0.3768  0.5572
    3ALA      C   25   9.068  10.194  16.681 -0.3043  0.1343 -0.0440
    3ALA      O   26   9.131  10.095  16.717  0.2930 -0.1395 -0.4204
    4ALA      N   27   9.028  10.211  16.550  0.6813 -0.1678  0.0616
    4ALA      H   28   8.976  10.293  16.522  0.3918  0.6691  2.7025
    4ALA     CA   29   9.063  10.121  16.441 -0.4753  0.5128 -0.1752
    4ALA     HA   30   9.034  10.022  16.477  1.0163  0.2239  0.2914
    4ALA     CB   31   8.976  10.160  16.319  0.3724  0.1809 -0.0913
    4ALA    HB1   32   8.869  10.153  16.341  0.3398  3.2479  1.2249
    4ALA    HB2   33   8.997  10.252  16.265  1.2396  0.0128 -0.0526
    4ALA    HB3   34   8.979  10.081  16.244  0.7762  0.3521 -0.2594
    4ALA      C   35   9.213  10.130  16.408 -0.3885  0.1947  0.1582
    4ALA      O   36   9.255  10.219  16.334 -0.0114 -0.3862  0.4440
    5NME      N   37   9.297  10.039  16.452  0.2397  0.3104  0.8242
    5NME      H   38   9.254   9.972  16.514  1.6069  0.6457  2.1827
    5NME    CH3   39   9.443  10.045  16.426  0.3119 -0.7858 -0.2333
    5NME   HH31   40   9.504  10.032  16.515 -1.6891  0.8166  1.4738
    5NME   HH32   41   9.458   9.969  16.349 -0.3937 -0.7774 -0.3849
    5NME   HH33   42   9.473  10.140  16.381 -0.5373 -0.0934  0.6228
  20.91516  20.91516  20.91516
