Protein
   22
    1ACE   HH31    1   5.737   5.616   5.820 -3.5959 -0.5079 -0.0328
    1ACE    CH3    2   5.745   5.595   5.926 -0.0623  0.6479  0.0404
    1ACE   HH32    3   5.849   5.600   5.960  0.4721 -1.9357 -1.0039
    1ACE   HH33    4   5.693   5.503   5.953 -1.2714  0.8338 -1.5314
    1ACE      C    5   5.672   5.705   6.005  0.0581  0.3499  0.2620
    1ACE      O    6   5.736   5.776   6.077  0.0600  0.0757 -0.2469
    2ALA      N    7   5.542   5.722   5.974 -0.2011  0.8453  0.0243
    2ALA      H    8   5.498   5.651   5.917 -0.0674  0.8165 -0.0466
    2ALA     CA    9   5.455   5.820   6.032  0.7170 -0.8153 -0.1202
    2ALA     HA   10   5.459   5.812   6.140 -3.6126  1.5863  0.4225
    2ALA     CB   11   5.486   5.963   5.982 -0.2364 -1.4087  0.0351
    2ALA    HB1   12   5.588   5.993   6.002 -0.9406  0.9500  0.4355
    2ALA    HB2   13   5.472   5.957   5.874 -1.4545 -0.0500  0.0848
    2ALA    HB3   14   5.412   6.031   6.025 -0.0893 -2.0883  1.4748
    2ALA      C   15   5.301   5.788   6.003  0.1923  0.6983 -0.1605
    2ALA      O   16   5.234   5.742   6.095 -0.2583 -0.4799 -0.2538
    3NME      N   17   5.255   5.809   5.875  0.1764 -0.0942  0.4389
    3NME      H   18   5.311   5.851   5.803 -0.9473 -0.2831 -0.6004
    3NME    CH3   19   5.109   5.810   5.849  0.8968 -0.8016 -0.2238
    3NME   HH31   20   5.085   5.802   5.743 -2.6671  0.1043  0.3875
    3NME   HH32   21   5.059   5.740   5.915 -1.5784  0.7909 -0.2934
    3NME   HH33   22   5.076   5.909   5.880  2.9893  0.0577 -0.5192
  10.72160  10.72160  10.72160
