Protein
   32
    1ACE   HH31    1  10.498  14.217   9.115 -0.3978 -0.3630  0.2306
    1ACE    CH3    2  10.551  14.126   9.144 -0.0372 -0.3859 -0.4710
    1ACE   HH32    3  10.591  14.153   9.242 -0.5027 -1.5417  0.0675
    1ACE   HH33    4  10.630  14.109   9.072 -0.7322 -1.1199 -1.0860
    1ACE      C    5  10.447  14.017   9.158  0.3977 -0.3426  0.4966
    1ACE      O    6  10.329  14.033   9.196  0.1581  0.2033  0.0320
    2ALA      N    7  10.498  13.897   9.149  0.0865 -0.5305 -0.0035
    2ALA      H    8  10.593  13.888   9.116 -0.4444  2.3453 -2.6899
    2ALA     CA    9  10.432  13.778   9.205 -0.4235 -0.0252 -0.6467
    2ALA     HA   10  10.331  13.774   9.163 -0.9149  3.2131 -0.0147
    2ALA     CB   11  10.504  13.658   9.143  0.7854  0.4931 -0.6481
    2ALA    HB1   12  10.450  13.570   9.179 -0.3355  0.4402 -2.3981
    2ALA    HB2   13  10.501  13.658   9.034  0.3209 -1.2287 -0.6628
    2ALA    HB3   14  10.606  13.652   9.180  0.4946 -2.0144 -0.0549
    2ALA      C   15  10.423  13.776   9.363  0.2746  0.1347  0.0288
    2ALA      O   16  10.331  13.720   9.416 -0.3090 -0.0561  0.4825
    3ALA      N   17  10.512  13.843   9.436 -0.3017 -0.6021 -0.2176
    3ALA      H   18  10.585  13.898   9.394 -1.0172 -0.5961 -1.5506
    3ALA     CA   19  10.527  13.812   9.578 -0.3509 -0.1476  0.4156
    3ALA     HA   20  10.481  13.714   9.596 -0.1717 -1.1749 -3.7374
    3ALA     CB   21  10.680  13.783   9.601 -1.4497  0.4461  0.1988
    3ALA    HB1   22  10.722  13.741   9.510  0.8056 -0.4516  1.5544
    3ALA    HB2   23  10.740  13.867   9.637  0.2988 -0.5151 -0.3703
    3ALA    HB3   24  10.694  13.706   9.677  0.3313  1.5711  1.0872
    3ALA      C   25  10.464  13.925   9.676  0.3892 -0.2117  0.6275
    3ALA      O   26  10.534  13.978   9.761 -0.2664  0.5484  0.5493
    4NME      N   27  10.333  13.953   9.655 -0.2911  0.4119  0.1870
    4NME      H   28  10.297  13.921   9.566  2.4177  1.4763 -1.4117
    4NME    CH3   29  10.253  14.058   9.728  0.0632  0.5414 -0.4447
    4NME   HH31   30  10.302  14.149   9.763 -1.9824  1.9615 -1.0816
    4NME   HH32   31  10.186  14.086   9.648 -2.0761 -0.5265  0.8736
    4NME   HH33   32  10.206  14.013   9.816  1.8786  0.1153  0.3604
  20.99041  20.99041  20.99041
