Protein
   32
    1ACE   HH31    1   2.538  18.903   1.803 -1.3182  1.0213 -0.3530
    1ACE    CH3    2   2.459  18.830   1.817 -0.5633  0.1449 -0.5632
    1ACE   HH32    3   2.367  18.866   1.770 -0.7450  1.3746  0.6768
    1ACE   HH33    4   2.439  18.813   1.923 -0.5975 -1.8396 -0.8626
    1ACE      C    5   2.494  18.694   1.763 -0.0208  0.5914  0.4957
    1ACE      O    6   2.613  18.672   1.746  0.8316 -0.6671  0.1702
    2ALA      N    7   2.398  18.616   1.716  0.4999 -0.2124  0.5082
    2ALA      H    8   2.304  18.652   1.727  0.6848  0.4034  0.1031
    2ALA     CA    9   2.425  18.507   1.621 -0.2190  0.1592  0.4763
    2ALA     HA   10   2.531  18.500   1.598 -0.7972 -0.7948 -2.2170
    2ALA     CB   11   2.378  18.373   1.672  0.0267  0.4980 -0.1940
    2ALA    HB1   12   2.269  18.374   1.670  0.0328  0.6098 -2.4391
    2ALA    HB2   13   2.418  18.292   1.611 -2.2670  0.2915 -1.5289
    2ALA    HB3   14   2.401  18.360   1.778 -1.6492  0.5728  0.2000
    2ALA      C   15   2.346  18.530   1.490  0.0485  0.4871 -0.7201
    2ALA      O   16   2.233  18.584   1.500  0.0396 -0.0212 -0.6264
    3ALA      N   17   2.394  18.484   1.377 -0.2704 -0.1356  0.1989
    3ALA      H   18   2.482  18.435   1.374 -1.2494 -1.9985 -1.8333
    3ALA     CA   19   2.344  18.518   1.241  0.3855  0.1475 -0.1474
    3ALA     HA   20   2.419  18.490   1.167 -3.0203 -3.5755 -2.5582
    3ALA     CB   21   2.231  18.414   1.215 -0.0432  0.4220  0.3262
    3ALA    HB1   22   2.166  18.441   1.132 -0.5167 -4.8434 -1.4503
    3ALA    HB2   23   2.269  18.315   1.189 -0.1821  0.5702 -0.4807
    3ALA    HB3   24   2.171  18.400   1.304 -1.2096 -1.0900 -0.6419
    3ALA      C   25   2.310  18.667   1.217  0.3451 -0.3378  0.3742
    3ALA      O   26   2.259  18.695   1.108 -0.6870  0.0713 -0.3988
    4NME      N   27   2.358  18.764   1.297 -0.1670  0.0128  0.0547
    4NME      H   28   2.359  18.743   1.396  0.2384  1.5836  0.4137
    4NME    CH3   29   2.356  18.905   1.259  0.1965 -0.1667  0.4903
    4NME   HH31   30   2.255  18.947   1.266  0.4663  0.4647  0.6650
    4NME   HH32   31   2.428  18.963   1.317 -0.9354 -0.5810  2.4166
    4NME   HH33   32   2.387  18.911   1.154  0.2242 -1.7930  0.3916
  20.99041  20.99041  20.99041
