Protein
   42
    1ACE   HH31    1  10.055  15.177   5.752 -0.0743 -1.3328 -0.7846
    1ACE    CH3    2  10.143  15.197   5.813 -0.5829  0.0996 -0.4645
    1ACE   HH32    3  10.137  15.161   5.916  0.3812  1.5012  0.1035
    1ACE   HH33    4  10.186  15.296   5.826 -2.2794  0.5962  1.8518
    1ACE      C    5  10.251  15.113   5.746  0.2784 -0.2605  0.0470
    1ACE      O    6  10.362  15.160   5.733  0.6770  0.0275 -0.2931
    2ALA      N    7  10.220  14.991   5.699  0.3068 -0.0537  0.1474
    2ALA      H    8  10.124  14.962   5.713  0.2414  0.5567  1.0868
    2ALA     CA    9  10.316  14.898   5.639 -0.1048  0.3261  0.5013
    2ALA     HA   10  10.413  14.912   5.687  0.0429 -1.1719  0.6723
    2ALA     CB   11  10.288  14.752   5.674  0.1268 -0.2970 -0.5657
    2ALA    HB1   12  10.197  14.711   5.630  1.3745  0.0773 -3.8076
    2ALA    HB2   13  10.372  14.689   5.646  0.5452 -1.5187  2.9633
    2ALA    HB3   14  10.289  14.756   5.783  0.6556 -0.4962 -0.5640
    2ALA      C   15  10.348  14.926   5.493 -0.0389 -0.4159  0.2071
    2ALA      O   16  10.357  14.834   5.409 -0.4741 -0.0837  0.0574
    3ALA      N   17  10.372  15.052   5.459 -0.2689 -0.9747 -0.2967
    3ALA      H   18  10.373  15.118   5.536 -1.2194 -0.5952 -0.5936
    3ALA     CA   19  10.383  15.108   5.322  0.0358 -0.0085  0.5145
    3ALA     HA   20  10.420  15.207   5.345  0.0206 -0.0461  0.7015
    3ALA     CB   21  10.500  15.045   5.241  0.7963 -0.3518 -0.4347
    3ALA    HB1   22  10.535  15.107   5.159  1.1848 -0.8241 -0.6326
    3ALA    HB2   23  10.585  15.050   5.309  0.2227  0.0862  0.2659
    3ALA    HB3   24  10.481  14.945   5.201  0.5506  0.2568 -1.8871
    3ALA      C   25  10.243  15.111   5.252  0.0553  0.2828 -0.0310
    3ALA      O   26  10.155  15.028   5.282  0.2275 -0.0337 -0.0052
    4ALA      N   27  10.223  15.194   5.152  0.1622  0.4140 -0.1025
    4ALA      H   28  10.305  15.235   5.109 -0.0444 -0.8285 -1.7389
    4ALA     CA   29  10.091  15.221   5.097 -0.9216  0.0449  0.2440
    4ALA     HA   30  10.016  15.180   5.164 -0.7179  0.0407  0.4809
    4ALA     CB   31  10.073  15.375   5.070 -0.0929  0.1503  0.5132
    4ALA    HB1   32  10.145  15.408   4.994  1.0519  2.0812  2.2680
    4ALA    HB2   33   9.977  15.417   5.039  0.7747  1.0485 -1.0546
    4ALA    HB3   34  10.098  15.436   5.157 -0.4987  1.2040 -0.0824
    4ALA      C   35  10.076  15.134   4.968 -0.0588 -0.3629  0.0766
    4ALA      O   36  10.019  15.183   4.875  0.3704  0.2600 -0.2189
    5NME      N   37  10.109  15.006   4.966 -0.2674  0.3067 -0.1787
    5NME      H   38  10.162  14.976   5.047 -2.2213  0.1959  1.1576
    5NME    CH3   39  10.104  14.908   4.853  0.2198 -0.7981 -0.0341
    5NME   HH31   40  10.115  14.808   4.895 -1.0351 -0.0410  2.2623
    5NME   HH32   41  10.008  14.912   4.802  0.0255 -1.1578  0.2951
    5NME   HH33   42  10.188  14.921   4.785  1.0031 -2.1328  0.6491
  20.91516  20.91516  20.91516
