Protein
   32
    1ACE   HH31    1  10.188   9.533   9.040 -0.5355  1.6053 -0.7594
    1ACE    CH3    2  10.098   9.473   9.032  0.1299  0.2210  1.2022
    1ACE   HH32    3  10.036   9.477   9.121 -2.4282  0.2674 -0.4499
    1ACE   HH33    4  10.114   9.366   9.018  0.4296  0.3211  0.7290
    1ACE      C    5  10.016   9.529   8.915 -0.1693  0.5106  0.1601
    1ACE      O    6  10.006   9.476   8.808  0.3855 -0.1844  0.1076
    2ALA      N    7   9.977   9.659   8.925  0.1789  0.6567  0.4247
    2ALA      H    8   9.995   9.713   9.008  0.5075 -0.4453  1.0820
    2ALA     CA    9   9.889   9.725   8.826 -0.5179 -0.1009  0.2358
    2ALA     HA   10   9.843   9.649   8.763 -0.4630 -0.7662  0.9872
    2ALA     CB   11   9.779   9.797   8.902 -0.9674 -0.6512  0.0781
    2ALA    HB1   12   9.710   9.828   8.823  0.4872  0.6006 -0.7646
    2ALA    HB2   13   9.737   9.738   8.984  2.3978  2.4720  4.5399
    2ALA    HB3   14   9.823   9.886   8.947 -2.1717  1.0991 -2.0105
    2ALA      C   15   9.981   9.796   8.727 -0.0086 -0.4509 -0.0296
    2ALA      O   16  10.008   9.916   8.742  0.0452  0.1378 -0.0090
    3ALA      N   17  10.009   9.734   8.609  0.0177  0.5603 -0.8179
    3ALA      H   18   9.981   9.639   8.587  1.5548 -0.7229  2.0938
    3ALA     CA   19  10.073   9.803   8.492  0.0556 -0.3856  0.2524
    3ALA     HA   20  10.140   9.887   8.512 -1.6702  0.6741  1.8709
    3ALA     CB   21  10.164   9.698   8.429 -0.5710 -0.0346 -0.1520
    3ALA    HB1   22  10.107   9.621   8.376 -1.1682  0.4817 -0.2839
    3ALA    HB2   23  10.208   9.751   8.344 -1.7354  1.6437  0.2347
    3ALA    HB3   24  10.244   9.655   8.490  0.3595  0.9385 -0.6430
    3ALA      C   25   9.963   9.867   8.399 -0.4774  0.5790  0.0262
    3ALA      O   26   9.957   9.839   8.281 -0.1796  0.3590  0.6891
    4NME      N   27   9.906   9.968   8.462 -0.1746  0.1277 -0.0901
    4NME      H   28   9.925   9.977   8.561  1.3459 -0.4742 -0.2951
    4NME    CH3   29   9.817  10.065   8.398 -0.8107 -0.3587  0.5767
    4NME   HH31   30   9.733  10.089   8.463  0.4022  1.8145  1.4530
    4NME   HH32   31   9.877  10.152   8.371 -0.8357 -0.3784  0.4472
    4NME   HH33   32   9.772  10.022   8.309  1.7926  1.4479 -1.7735
  20.99041  20.99041  20.99041
