Protein
   42
    1ACE   HH31    1   8.184  12.906  16.600 -0.7970 -0.4226  0.7830
    1ACE    CH3    2   8.214  12.954  16.693  0.2914  0.5932 -0.0581
    1ACE   HH32    3   8.122  12.952  16.751 -0.2378 -1.5789 -0.8620
    1ACE   HH33    4   8.260  13.052  16.682  2.9262 -0.5459 -0.0278
    1ACE      C    5   8.309  12.849  16.764  0.3737 -0.5201  0.1608
    1ACE      O    6   8.263  12.742  16.792  0.2706  0.5258  0.0252
    2ALA      N    7   8.441  12.877  16.771 -0.6185 -0.6233  0.0066
    2ALA      H    8   8.469  12.963  16.725 -0.7550 -0.1497  0.7882
    2ALA     CA    9   8.546  12.818  16.851  0.0255  0.6587  0.4646
    2ALA     HA   10   8.593  12.736  16.795  1.4418  1.0616  1.0124
    2ALA     CB   11   8.664  12.914  16.866 -0.3208 -0.3366 -0.5708
    2ALA    HB1   12   8.635  13.008  16.913  2.3647  2.0793 -3.2308
    2ALA    HB2   13   8.745  12.861  16.916 -1.6984 -1.9064  0.0270
    2ALA    HB3   14   8.704  12.942  16.768  0.6227  1.7869  0.3369
    2ALA      C   15   8.495  12.745  16.983 -0.4154 -0.3612  0.3549
    2ALA      O   16   8.478  12.808  17.084 -0.5009 -0.5312 -0.4959
    3ALA      N   17   8.473  12.614  16.989  0.3935  0.4610  0.0126
    3ALA      H   18   8.441  12.576  17.077  0.3810  0.2624 -0.0769
    3ALA     CA   19   8.469  12.519  16.877  0.3050 -0.3073  0.0989
    3ALA     HA   20   8.450  12.570  16.783  1.5723 -0.7156 -0.4025
    3ALA     CB   21   8.603  12.446  16.882  0.1572  0.0854  0.3107
    3ALA    HB1   22   8.610  12.397  16.979  0.8672  0.1256  0.2853
    3ALA    HB2   23   8.615  12.368  16.807  2.3653  0.5394  0.1278
    3ALA    HB3   24   8.680  12.519  16.858 -1.9810  1.4159 -3.1535
    3ALA      C   25   8.352  12.422  16.896 -0.5303 -0.0557 -0.2910
    3ALA      O   26   8.378  12.307  16.925  0.0676  0.0615 -0.3906
    4ALA      N   27   8.235  12.473  16.912  1.0208  0.2024 -0.1902
    4ALA      H   28   8.233  12.573  16.912  1.7990  0.2261  0.8591
    4ALA     CA   29   8.109  12.405  16.919 -0.5827 -0.0963 -0.7279
    4ALA     HA   30   8.090  12.381  17.023  0.6598  0.6395 -0.3196
    4ALA     CB   31   7.997  12.503  16.877 -0.7634  0.4636 -0.1632
    4ALA    HB1   32   8.010  12.595  16.934  2.5459 -1.2886  2.3042
    4ALA    HB2   33   8.001  12.530  16.771  2.2651  0.6402 -0.0808
    4ALA    HB3   34   7.905  12.455  16.909  0.6183 -1.5514  1.0745
    4ALA      C   35   8.086  12.265  16.852  0.2469  0.2255 -0.3890
    4ALA      O   36   7.987  12.199  16.880  0.0033 -0.5147 -0.1163
    5NME      N   37   8.173  12.211  16.759  0.1110 -0.3962 -0.0213
    5NME      H   38   8.261  12.260  16.748  1.3275 -1.7170  2.7465
    5NME    CH3   39   8.155  12.086  16.690  0.3268 -0.3492 -0.7733
    5NME   HH31   40   8.205  12.091  16.593 -0.1808  1.0210 -0.9865
    5NME   HH32   41   8.194  12.002  16.749 -1.3929 -0.0050  0.9752
    5NME   HH33   42   8.053  12.064  16.662  0.4808 -1.1649 -0.7214
  20.91516  20.91516  20.91516
