Protein
   32
    1ACE   HH31    1   8.728  10.636  13.060 -2.4568  3.0058 -2.6092
    1ACE    CH3    2   8.648  10.636  13.135 -0.1723 -0.0729  0.1275
    1ACE   HH32    3   8.598  10.731  13.122  0.0239 -0.0302 -0.3566
    1ACE   HH33    4   8.690  10.630  13.235 -2.8939 -0.2566  1.3454
    1ACE      C    5   8.548  10.522  13.121  0.6330  0.2835 -0.1934
    1ACE      O    6   8.523  10.445  13.207 -0.5622 -0.1388 -0.2481
    2ALA      N    7   8.477  10.534  13.010  0.3171  0.6297 -0.1479
    2ALA      H    8   8.523  10.592  12.942  0.7343  1.0695  0.4893
    2ALA     CA    9   8.356  10.452  12.972  0.3692  0.2681 -0.9327
    2ALA     HA   10   8.289  10.472  13.055  0.8195  3.7345 -1.2835
    2ALA     CB   11   8.303  10.524  12.841 -0.2464  0.1647  0.4210
    2ALA    HB1   12   8.364  10.499  12.755 -2.6423 -1.6921 -0.8703
    2ALA    HB2   13   8.203  10.487  12.818  0.0900 -0.8487  0.5620
    2ALA    HB3   14   8.294  10.633  12.851 -0.3272  0.0126  2.3861
    2ALA      C   15   8.386  10.303  12.968  0.0624  0.1087 -0.0753
    2ALA      O   16   8.421  10.247  12.864  0.2284 -0.2672 -0.0367
    3ALA      N   17   8.390  10.237  13.083 -0.2217 -0.3852  0.2808
    3ALA      H   18   8.391  10.296  13.166 -0.0828 -3.2774  2.4999
    3ALA     CA   19   8.421  10.097  13.112 -0.0465 -0.5885  0.4036
    3ALA     HA   20   8.446  10.103  13.218 -1.6839  0.9947  0.7539
    3ALA     CB   21   8.297  10.015  13.102 -0.2552 -0.7399 -0.2158
    3ALA    HB1   22   8.274  10.007  12.995  0.5309  2.6567 -0.7655
    3ALA    HB2   23   8.306   9.917  13.148  1.5309  0.6208  2.6091
    3ALA    HB3   24   8.216  10.072  13.147  1.3105  2.0453 -0.6543
    3ALA      C   25   8.549  10.043  13.045  0.3330 -0.0108 -0.1097
    3ALA      O   26   8.565   9.923  13.030  0.3627  0.0488  0.4829
    4NME      N   27   8.638  10.131  13.011 -0.0700 -0.2429  0.1207
    4NME      H   28   8.610  10.228  13.017 -1.5446 -0.5265 -1.3761
    4NME    CH3   29   8.777  10.093  12.973 -0.2780  0.3631  0.9855
    4NME   HH31   30   8.837  10.088  13.064  0.1630 -2.2508  0.6286
    4NME   HH32   31   8.778   9.994  12.928  1.5763  1.1891 -0.9506
    4NME   HH33   32   8.819  10.157  12.895  2.1730 -1.9710  0.2678
  20.99041  20.99041  20.99041
