Protein
   42
    1ACE   HH31    1  10.068   9.418   4.367 -2.6303  0.1845  2.3544
    1ACE    CH3    2  10.123   9.341   4.420 -0.0516  0.1425 -0.1582
    1ACE   HH32    3  10.173   9.272   4.352  1.6390 -1.6937  2.7264
    1ACE   HH33    4  10.054   9.288   4.484 -1.5488  0.3448 -1.5537
    1ACE      C    5  10.226   9.406   4.510 -0.4859 -0.2104 -0.1725
    1ACE      O    6  10.277   9.513   4.488 -0.2143  0.3961  0.2051
    2ALA      N    7  10.248   9.331   4.621  0.0848  0.2554  0.0637
    2ALA      H    8  10.213   9.237   4.628  0.6868 -0.1951 -2.1497
    2ALA     CA    9  10.322   9.381   4.735  0.1871  0.0685  0.3022
    2ALA     HA   10  10.412   9.439   4.716  1.8910 -2.2079  0.9606
    2ALA     CB   11  10.219   9.468   4.807 -0.1797 -0.1214  0.4408
    2ALA    HB1   12  10.191   9.553   4.745  2.6494  0.1970 -0.5471
    2ALA    HB2   13  10.135   9.403   4.834  0.6637 -1.2638  0.4279
    2ALA    HB3   14  10.263   9.509   4.898 -0.0208 -0.1338  0.3725
    2ALA      C   15  10.373   9.262   4.813 -0.8748  0.2169 -0.0472
    2ALA      O   16  10.368   9.148   4.771 -0.1425  0.3117 -0.1444
    3ALA      N   17  10.424   9.286   4.932  0.2107  0.5116 -1.0759
    3ALA      H   18  10.422   9.381   4.967 -0.9622 -0.0403  0.4435
    3ALA     CA   19  10.463   9.182   5.034 -0.0168  0.1050 -0.0737
    3ALA     HA   20  10.441   9.085   4.989  2.1603  0.2290 -1.5729
    3ALA     CB   21  10.612   9.198   5.055  0.1050  0.4155 -0.7210
    3ALA    HB1   22  10.671   9.187   4.964  1.7979  2.5611  0.0124
    3ALA    HB2   23  10.646   9.289   5.104  0.7773 -0.2037 -0.0042
    3ALA    HB3   24  10.644   9.117   5.120 -1.0113  1.2806  0.9691
    3ALA      C   25  10.388   9.204   5.163 -0.1779  0.1572 -0.1567
    3ALA      O   26  10.328   9.310   5.176  0.1123 -0.1254 -0.6097
    4ALA      N   27  10.382   9.109   5.258 -0.5469  0.1325  0.0119
    4ALA      H   28  10.435   9.027   5.230 -0.8715  0.0671 -0.4359
    4ALA     CA   29  10.323   9.117   5.392 -0.6373  0.1810 -0.4678
    4ALA     HA   30  10.297   9.222   5.405 -0.8933 -0.0463  0.9565
    4ALA     CB   31  10.197   9.029   5.389 -0.3131 -0.1000 -0.1880
    4ALA    HB1   32  10.216   8.922   5.385 -0.4557 -0.2180  1.4254
    4ALA    HB2   33  10.128   9.059   5.468 -1.2119 -1.0691 -0.5923
    4ALA    HB3   34  10.151   9.056   5.295  0.6489 -0.2507 -0.7230
    4ALA      C   35  10.423   9.069   5.503  0.2475  0.0324  0.1966
    4ALA      O   36  10.511   8.984   5.481 -0.9824 -0.0905  0.4307
    5NME      N   37  10.394   9.112   5.623 -1.0280  0.7039 -0.3729
    5NME      H   38  10.324   9.183   5.634  0.3710  2.0730  0.0280
    5NME    CH3   39  10.477   9.070   5.739 -0.2150  0.1360  0.1524
    5NME   HH31   40  10.453   8.970   5.773  1.6809 -0.1944  0.5975
    5NME   HH32   41  10.574   9.049   5.694 -1.2513  2.1026 -3.4335
    5NME   HH33   42  10.474   9.136   5.826  1.3802 -2.2582  2.1557
  20.91516  20.91516  20.91516
