Protein
   42
    1ACE   HH31    1  14.635  12.381  11.524  2.1247 -1.2330 -0.0621
    1ACE    CH3    2  14.707  12.439  11.467  0.3092  0.9494 -0.2315
    1ACE   HH32    3  14.676  12.462  11.365  0.9217 -1.5514 -1.0327
    1ACE   HH33    4  14.798  12.381  11.456  0.6991  2.0504 -5.1170
    1ACE      C    5  14.726  12.567  11.552 -0.3159 -0.7656  0.3826
    1ACE      O    6  14.840  12.598  11.587 -0.6820  0.0355 -0.0252
    2ALA      N    7  14.614  12.640  11.578 -0.0554  0.2138 -0.3089
    2ALA      H    8  14.528  12.612  11.534  0.1646 -0.7100 -0.1604
    2ALA     CA    9  14.614  12.764  11.661  0.1140 -0.4290  0.4963
    2ALA     HA   10  14.714  12.807  11.659 -0.4943  1.1559  2.0977
    2ALA     CB   11  14.528  12.873  11.586 -0.7157  0.4576 -0.1173
    2ALA    HB1   12  14.569  12.890  11.487 -1.8683  0.6949 -0.5665
    2ALA    HB2   13  14.422  12.849  11.579 -1.0926  1.8716  0.4590
    2ALA    HB3   14  14.536  12.963  11.647  0.5802 -0.9918  2.0104
    2ALA      C   15  14.557  12.741  11.806 -0.7831 -0.1184  0.4571
    2ALA      O   16  14.462  12.808  11.852 -0.3803  0.0618  0.5854
    3ALA      N   17  14.613  12.634  11.862 -0.0932  0.0333  0.2250
    3ALA      H   18  14.686  12.589  11.809  0.1761  1.1125 -0.3542
    3ALA     CA   19  14.564  12.555  11.983 -0.1054  0.5736  0.0629
    3ALA     HA   20  14.631  12.469  11.991  0.0501  0.4116 -2.0984
    3ALA     CB   21  14.578  12.634  12.113  0.0749  0.4465  0.4100
    3ALA    HB1   22  14.517  12.579  12.185 -0.1086  0.2252  0.0860
    3ALA    HB2   23  14.684  12.626  12.138 -0.1081 -2.6835  0.5857
    3ALA    HB3   24  14.546  12.737  12.095 -0.1082 -0.0407 -2.5479
    3ALA      C   25  14.428  12.493  11.947  0.6084  0.2214 -0.1581
    3ALA      O   26  14.409  12.370  11.941 -0.5079  0.1475  0.1255
    4ALA      N   27  14.326  12.580  11.936 -0.3122 -0.1187 -0.3121
    4ALA      H   28  14.355  12.676  11.941 -0.6202 -0.0363 -0.0945
    4ALA     CA   29  14.218  12.551  11.841 -0.3395  0.5319 -0.1651
    4ALA     HA   30  14.160  12.466  11.880 -0.5601  0.1414 -1.3125
    4ALA     CB   31  14.131  12.673  11.815 -0.3970  0.6193 -0.0838
    4ALA    HB1   32  14.101  12.714  11.912  1.2419  2.3624 -0.2721
    4ALA    HB2   33  14.192  12.731  11.746  0.5673 -0.0364  0.1830
    4ALA    HB3   34  14.038  12.651  11.764 -2.2858  2.9701  2.1098
    4ALA      C   35  14.272  12.499  11.699 -0.1146  0.3605 -0.3120
    4ALA      O   36  14.366  12.551  11.640 -0.0331 -0.2377 -0.2406
    5NME      N   37  14.207  12.402  11.639  0.4206  0.0194  0.3989
    5NME      H   38  14.155  12.336  11.696 -0.5166 -1.0091 -1.5275
    5NME    CH3   39  14.237  12.367  11.502 -0.8260  0.0116 -0.1481
    5NME   HH31   40  14.187  12.276  11.471 -0.3140 -0.0949 -0.6875
    5NME   HH32   41  14.207  12.455  11.444  0.0060  0.9191  0.7451
    5NME   HH33   42  14.345  12.353  11.497 -0.7470  0.6582 -0.5703
  20.91516  20.91516  20.91516
