Protein
   42
    1ACE   HH31    1   4.856   4.078  10.446  1.6868  1.6563 -0.8100
    1ACE    CH3    2   4.782   4.110  10.372 -0.0608 -0.1163  0.0525
    1ACE   HH32    3   4.767   4.217  10.387 -0.9969  0.0390 -1.7097
    1ACE   HH33    4   4.690   4.052  10.373 -0.3005  0.2572  1.4543
    1ACE      C    5   4.847   4.094  10.240 -0.4879  0.3898  0.5062
    1ACE      O    6   4.877   3.980  10.205  0.5576  0.2970 -0.2946
    2ALA      N    7   4.863   4.198  10.158 -0.0908 -0.7540  0.3916
    2ALA      H    8   4.818   4.285  10.182  1.5628 -0.1545  1.5215
    2ALA     CA    9   4.946   4.200  10.039  0.2712  0.9859  0.1481
    2ALA     HA   10   4.952   4.304  10.007  0.7915  0.8871 -0.0751
    2ALA     CB   11   5.089   4.182  10.080 -0.7426  0.0088 -0.5988
    2ALA    HB1   12   5.105   4.230  10.176  0.7872 -1.0141 -0.3214
    2ALA    HB2   13   5.120   4.079  10.094  0.0442  0.5050  1.7147
    2ALA    HB3   14   5.156   4.231  10.009  1.5957 -1.5605  0.3998
    2ALA      C   15   4.909   4.112   9.916  0.2166 -0.0874  0.0872
    2ALA      O   16   4.932   4.147   9.802 -0.6543 -0.1965 -0.3214
    3ALA      N   17   4.832   4.005   9.932  0.0977  0.1989  0.2093
    3ALA      H   18   4.814   3.983  10.028 -2.3705  2.6381  0.4133
    3ALA     CA   19   4.785   3.899   9.837  0.0453  0.4726  0.1759
    3ALA     HA   20   4.788   3.800   9.882  0.6166 -0.2716 -1.4495
    3ALA     CB   21   4.639   3.930   9.813 -0.2292  0.4452  0.6977
    3ALA    HB1   22   4.608   3.857   9.739  1.8830  0.4028 -0.2186
    3ALA    HB2   23   4.583   3.929   9.907 -1.1877  2.0298  0.1849
    3ALA    HB3   24   4.627   4.033   9.780  0.8563  0.5498  0.6286
    3ALA      C   25   4.875   3.880   9.713  0.1406 -0.4463 -0.1898
    3ALA      O   26   4.826   3.865   9.601 -0.1796  0.7181 -0.4884
    4ALA      N   27   5.012   3.889   9.721  0.4619 -0.1905 -0.1174
    4ALA      H   28   5.050   3.893   9.814  0.6120 -0.8347 -0.1417
    4ALA     CA   29   5.115   3.864   9.614 -0.0440 -0.2397  0.3932
    4ALA     HA   30   5.213   3.881   9.658  1.0094 -1.3803 -1.3958
    4ALA     CB   31   5.099   3.722   9.558  0.5860 -0.4407  0.0925
    4ALA    HB1   32   5.011   3.735   9.495  0.3300  0.5882  0.6361
    4ALA    HB2   33   5.186   3.702   9.495 -0.6846  0.0002 -1.8618
    4ALA    HB3   34   5.083   3.650   9.638  0.4619 -0.0119  0.4553
    4ALA      C   35   5.117   3.972   9.503 -0.4194 -0.1731  0.6103
    4ALA      O   36   5.219   3.999   9.437  0.4085  0.0932  0.1320
    5NME      N   37   5.006   4.037   9.468 -0.2214 -0.3034 -0.7815
    5NME      H   38   4.922   4.009   9.516 -0.1533 -0.4466 -0.7421
    5NME    CH3   39   4.993   4.137   9.361 -0.7578 -0.2703  0.3287
    5NME   HH31   40   4.944   4.221   9.409  0.3686 -0.9075  2.7569
    5NME   HH32   41   5.094   4.173   9.343 -0.0272 -0.7893  2.9770
    5NME   HH33   42   4.935   4.106   9.274  2.5224  0.6573 -2.3641
  20.91516  20.91516  20.91516
