Protein
   42
    1ACE   HH31    1  10.894   8.218   9.234  0.4493  1.1392 -2.8468
    1ACE    CH3    2  10.913   8.117   9.199  0.5864 -0.0785  0.4672
    1ACE   HH32    3  10.889   8.032   9.264 -0.4331 -0.9690 -1.0125
    1ACE   HH33    4  11.022   8.114   9.193  0.5615 -0.2273  0.0236
    1ACE      C    5  10.865   8.086   9.056  0.6208  0.5542 -0.0136
    1ACE      O    6  10.856   7.969   9.015 -0.2475 -0.5752  0.0564
    2ALA      N    7  10.827   8.186   8.975  0.4363 -0.3298  0.4603
    2ALA      H    8  10.833   8.282   9.007  1.2906 -0.2220  0.0189
    2ALA     CA    9  10.795   8.179   8.832  0.3749  0.2156  0.7671
    2ALA     HA   10  10.756   8.080   8.812  2.5626 -0.3860 -1.0217
    2ALA     CB   11  10.684   8.286   8.810  0.0165 -0.2806  0.0108
    2ALA    HB1   12  10.709   8.381   8.859  1.5048 -1.0792  0.8542
    2ALA    HB2   13  10.664   8.283   8.703  1.7573 -0.9157 -0.3275
    2ALA    HB3   14  10.588   8.266   8.857  1.0088  3.5892  4.3786
    2ALA      C   15  10.924   8.206   8.745 -0.3928  0.2435  0.3384
    2ALA      O   16  10.963   8.322   8.736  0.3765 -0.1851  0.7595
    3ALA      N   17  11.005   8.106   8.706 -0.0760 -0.2912 -0.0074
    3ALA      H   18  11.090   8.136   8.660 -0.1505 -1.1358 -0.7126
    3ALA     CA   19  10.973   7.961   8.715 -1.2660  0.0914  0.2688
    3ALA     HA   20  10.905   7.935   8.796 -0.9093  1.5963  1.0875
    3ALA     CB   21  10.903   7.924   8.585 -0.1307 -0.8842 -0.1848
    3ALA    HB1   22  10.817   7.991   8.575  1.0465  0.9542  1.3181
    3ALA    HB2   23  10.961   7.945   8.495 -2.2099  1.0415 -1.1908
    3ALA    HB3   24  10.882   7.819   8.606 -2.4127 -0.2153  1.1905
    3ALA      C   25  11.096   7.874   8.735  0.2280 -0.4218  0.7904
    3ALA      O   26  11.206   7.905   8.685  0.0221  0.2546 -0.0317
    4ALA      N   27  11.077   7.760   8.802 -0.2835 -0.2585  0.8153
    4ALA      H   28  10.979   7.739   8.817 -0.8161  0.8577 -0.9181
    4ALA     CA   29  11.161   7.642   8.813 -0.0772  0.5208 -0.1505
    4ALA     HA   30  11.217   7.626   8.720  1.7738 -0.1207  1.0207
    4ALA     CB   31  11.261   7.656   8.933 -0.1965 -0.2984  0.6746
    4ALA    HB1   32  11.330   7.739   8.918  1.1281 -1.3123  0.9207
    4ALA    HB2   33  11.205   7.670   9.025  3.3344  3.1913  2.5817
    4ALA    HB3   34  11.314   7.562   8.948 -0.8540 -0.6878  0.6087
    4ALA      C   35  11.076   7.512   8.829 -0.0621  0.9021  0.7407
    4ALA      O   36  10.954   7.515   8.803 -0.1638 -0.1274 -0.1667
    5NME      N   37  11.135   7.394   8.857  0.2877 -0.1107 -0.2987
    5NME      H   38  11.232   7.405   8.883  0.6413 -1.0503 -1.1774
    5NME    CH3   39  11.066   7.263   8.865 -0.5323 -0.7214 -0.2342
    5NME   HH31   40  11.102   7.205   8.950 -1.4854  0.9740  1.4136
    5NME   HH32   41  10.957   7.273   8.866 -0.3471  4.3943  1.5726
    5NME   HH33   42  11.087   7.200   8.779  1.9062 -0.5443  0.1530
  20.91516  20.91516  20.91516
