Protein
   32
    1ACE   HH31    1   5.339   3.344  14.729 -2.1682  0.9099  0.1498
    1ACE    CH3    2   5.373   3.448  14.725  0.2125  0.1898 -0.2757
    1ACE   HH32    3   5.399   3.472  14.828  2.4946 -2.3274 -0.1496
    1ACE   HH33    4   5.289   3.510  14.693 -2.3817 -2.5601  0.7736
    1ACE      C    5   5.484   3.476  14.632  0.2858  0.3507 -0.1432
    1ACE      O    6   5.592   3.528  14.667  0.7200 -0.4186 -0.4915
    2ALA      N    7   5.461   3.442  14.508  0.2741  0.1523  0.7177
    2ALA      H    8   5.373   3.392  14.503 -0.4253  1.1497  2.3043
    2ALA     CA    9   5.570   3.414  14.415  0.1617  0.3254  0.4173
    2ALA     HA   10   5.665   3.431  14.466  2.1345 -0.2594 -2.7354
    2ALA     CB   11   5.569   3.262  14.380  0.3735  0.3718  0.0795
    2ALA    HB1   12   5.531   3.205  14.465 -0.7601  0.0434 -0.6276
    2ALA    HB2   13   5.492   3.261  14.302 -0.6971 -1.0548  1.1016
    2ALA    HB3   14   5.670   3.237  14.346 -0.4541 -0.0000 -2.2656
    2ALA      C   15   5.567   3.502  14.290  0.1259 -0.3722  0.1796
    2ALA      O   16   5.593   3.464  14.175  0.1804 -0.3848 -0.0513
    3ALA      N   17   5.543   3.623  14.308  0.4380 -0.0397 -0.8420
    3ALA      H   18   5.531   3.641  14.406  3.0545 -1.8913 -0.0837
    3ALA     CA   19   5.529   3.730  14.213  0.7434 -0.7345  0.2680
    3ALA     HA   20   5.485   3.688  14.123  0.1869  2.5963 -1.1464
    3ALA     CB   21   5.423   3.833  14.267  0.3539 -0.4563  0.5117
    3ALA    HB1   22   5.428   3.928  14.212  2.5533  0.1265  1.6086
    3ALA    HB2   23   5.323   3.796  14.245  0.2656  0.4975 -0.9375
    3ALA    HB3   24   5.418   3.844  14.375 -1.6183 -2.3275  0.6823
    3ALA      C   25   5.659   3.795  14.167  0.1224 -0.2257 -0.0821
    3ALA      O   26   5.661   3.902  14.113  0.6240 -0.2646 -0.2167
    4NME      N   27   5.769   3.732  14.197 -0.6297 -0.4020 -0.6974
    4NME      H   28   5.775   3.636  14.226  0.8564 -0.7940 -2.1089
    4NME    CH3   29   5.899   3.801  14.210  0.1240 -0.2136 -0.3693
    4NME   HH31   30   5.898   3.900  14.256  1.7460 -0.8018  1.0346
    4NME   HH32   31   5.971   3.748  14.272 -0.1743 -0.0836  0.0899
    4NME   HH33   32   5.931   3.817  14.106 -1.6450  1.0234 -0.7719
  20.99041  20.99041  20.99041
