Protein
   42
    1ACE   HH31    1   8.142  13.524   8.505  0.1045  0.1629  0.4217
    1ACE    CH3    2   8.219  13.511   8.582  0.4204  0.1912  0.1110
    1ACE   HH32    3   8.278  13.601   8.569 -0.4136  0.8466  0.7092
    1ACE   HH33    4   8.279  13.423   8.556  2.2732  1.2714  0.5319
    1ACE      C    5   8.155  13.496   8.717  0.3156 -0.7259 -0.7788
    1ACE      O    6   8.050  13.441   8.732 -0.1376  0.5516 -0.0232
    2ALA      N    7   8.223  13.547   8.821 -0.1017 -0.4869 -0.6655
    2ALA      H    8   8.306  13.596   8.792 -0.1779  0.5195  0.7243
    2ALA     CA    9   8.218  13.509   8.956 -0.3852  0.4831 -0.5770
    2ALA     HA   10   8.122  13.522   9.005  0.2854  0.3956  0.8157
    2ALA     CB   11   8.240  13.353   8.966 -0.6067 -0.3190  0.0698
    2ALA    HB1   12   8.339  13.328   8.928 -0.8551  1.0866 -1.5946
    2ALA    HB2   13   8.242  13.328   9.073 -2.4137  1.0590  0.4751
    2ALA    HB3   14   8.157  13.303   8.917  0.7674 -1.5037 -1.1236
    2ALA      C   15   8.334  13.574   9.031 -0.1116  0.3424 -0.1078
    2ALA      O   16   8.440  13.581   8.979 -0.3941  0.4083  0.2545
    3ALA      N   17   8.322  13.613   9.158  0.8036 -0.3075 -0.0547
    3ALA      H   18   8.391  13.675   9.199 -0.8634  0.0449  2.5684
    3ALA     CA   19   8.206  13.597   9.248 -0.3684 -0.2096 -0.5219
    3ALA     HA   20   8.133  13.534   9.197 -0.2190 -1.0165  0.2422
    3ALA     CB   21   8.252  13.524   9.379  0.0574  0.4137  1.0810
    3ALA    HB1   22   8.327  13.583   9.431  2.2861 -0.8586 -0.5174
    3ALA    HB2   23   8.162  13.513   9.440 -1.0144  0.1267 -0.5193
    3ALA    HB3   24   8.273  13.421   9.350 -1.0778  0.4606  0.0470
    3ALA      C   25   8.140  13.735   9.276 -0.1658 -0.0336 -0.3602
    3ALA      O   26   8.205  13.836   9.277  0.9813 -0.5563 -0.5510
    4ALA      N   27   8.008  13.727   9.313  0.1637 -0.2458 -0.1582
    4ALA      H   28   7.968  13.636   9.333  0.0985  0.1036  1.4597
    4ALA     CA   29   7.923  13.837   9.362 -0.3706  0.1473  0.0202
    4ALA     HA   30   7.826  13.795   9.335 -0.9760  0.4579  1.6095
    4ALA     CB   31   7.928  13.825   9.521 -0.2272  0.6226  0.3538
    4ALA    HB1   32   7.910  13.722   9.550  1.7592 -0.0770 -0.6789
    4ALA    HB2   33   8.030  13.858   9.540  0.2618  0.4860 -1.8517
    4ALA    HB3   34   7.857  13.899   9.559 -2.1463 -0.3025 -1.2398
    4ALA      C   35   7.930  13.987   9.308  0.3806  0.6067 -0.4940
    4ALA      O   36   7.829  14.040   9.276  0.2630  0.6876  0.3408
    5NME      N   37   8.044  14.058   9.306  0.1614  0.7460  0.0106
    5NME      H   38   8.129  14.007   9.323 -0.9209 -0.3649  2.4602
    5NME    CH3   39   8.054  14.179   9.229 -0.3982  0.4620  0.2524
    5NME   HH31   40   7.978  14.250   9.263  0.4271  1.8970 -0.7942
    5NME   HH32   41   8.152  14.222   9.247 -0.1224  1.4599 -3.0579
    5NME   HH33   42   8.049  14.163   9.121  1.1361  1.1287  0.0566
  20.91516  20.91516  20.91516
