Protein
   42
    1ACE   HH31    1  12.811  14.136  12.841  0.1370 -1.4624 -0.6926
    1ACE    CH3    2  12.884  14.181  12.908 -0.1730 -0.0594 -1.2765
    1ACE   HH32    3  12.892  14.290  12.908  0.5919 -0.1157 -0.9675
    1ACE   HH33    4  12.983  14.137  12.895  0.5111  0.0047  2.6516
    1ACE      C    5  12.848  14.131  13.044  0.5064 -0.2099  0.2945
    1ACE      O    6  12.732  14.094  13.065 -0.2659  0.1590 -0.4160
    2ALA      N    7  12.947  14.132  13.131  0.3537  0.0460 -0.4191
    2ALA      H    8  13.039  14.152  13.096  0.7022  0.0548  0.4742
    2ALA     CA    9  12.942  14.048  13.258 -0.1417 -0.3133 -0.0945
    2ALA     HA   10  12.842  14.006  13.268 -1.1182  1.3654 -2.0560
    2ALA     CB   11  13.032  13.931  13.253 -0.0842  0.4932 -0.8882
    2ALA    HB1   12  12.996  13.849  13.191 -0.0279  0.4646 -0.8864
    2ALA    HB2   13  13.133  13.966  13.231 -0.2950  2.1207  0.5373
    2ALA    HB3   14  13.039  13.888  13.353  0.6467  0.6590 -0.8666
    2ALA      C   15  12.959  14.136  13.382  0.0118  0.2174  0.9842
    2ALA      O   16  13.064  14.151  13.438  0.4299 -0.0413  0.3434
    3ALA      N   17  12.869  14.226  13.409 -0.5385  0.1655 -0.2720
    3ALA      H   18  12.900  14.295  13.475 -0.9578 -0.7942  0.9697
    3ALA     CA   19  12.732  14.245  13.355 -0.1853 -0.6046  0.2876
    3ALA     HA   20  12.715  14.162  13.287 -0.0064  1.0044 -1.8263
    3ALA     CB   21  12.629  14.244  13.469  0.6103  0.0691 -0.2737
    3ALA    HB1   22  12.626  14.338  13.525 -0.4963 -0.8504  1.2689
    3ALA    HB2   23  12.530  14.241  13.425  1.4680 -2.6318 -2.2597
    3ALA    HB3   24  12.646  14.151  13.523  1.0171  0.8978  1.0917
    3ALA      C   25  12.727  14.381  13.281 -0.0775  0.5345 -0.0846
    3ALA      O   26  12.768  14.481  13.336 -0.0403  0.5843 -0.0758
    4ALA      N   27  12.662  14.375  13.162 -0.2584 -0.1730  0.5082
    4ALA      H   28  12.618  14.288  13.139 -0.3688  0.0010  0.0670
    4ALA     CA   29  12.650  14.484  13.057  0.2717 -0.0380  0.0653
    4ALA     HA   30  12.681  14.427  12.970  1.1498 -0.4766  0.6576
    4ALA     CB   31  12.505  14.512  13.047  0.0922 -0.1584 -0.0321
    4ALA    HB1   32  12.466  14.534  13.147 -1.9198 -0.3795 -0.7218
    4ALA    HB2   33  12.494  14.603  12.988 -2.3428 -1.1740 -1.3273
    4ALA    HB3   34  12.453  14.428  13.000  2.1198 -1.2401 -0.4685
    4ALA      C   35  12.738  14.610  13.055 -0.2540 -0.1292  0.2274
    4ALA      O   36  12.783  14.645  12.945 -0.3513  0.1418  0.6632
    5NME      N   37  12.756  14.687  13.168 -0.1602  0.1687  0.0413
    5NME      H   38  12.727  14.646  13.255 -0.4463 -0.9700 -0.5750
    5NME    CH3   39  12.787  14.827  13.177 -0.3572 -1.0939  0.6103
    5NME   HH31   40  12.780  14.870  13.277  2.7646  1.6134 -0.1979
    5NME   HH32   41  12.888  14.852  13.144 -0.9316 -0.6484 -0.8963
    5NME   HH33   42  12.716  14.881  13.114  0.1151  0.5934  1.4694
  20.91516  20.91516  20.91516
