Protein
   42
    1ACE   HH31    1  10.088   0.996  12.074 -1.6163  0.4557 -1.4932
    1ACE    CH3    2  10.166   0.995  11.998 -0.4777 -0.3667 -0.3339
    1ACE   HH32    3  10.263   1.037  12.026  0.0751 -1.7248 -0.0809
    1ACE   HH33    4  10.128   1.048  11.911  0.5065 -0.8764 -1.0970
    1ACE      C    5  10.183   0.847  11.968  0.2932 -0.0149 -0.2523
    1ACE      O    6  10.108   0.759  12.011  0.0716  0.1141  0.1287
    2ALA      N    7  10.290   0.808  11.902 -0.3623  0.2689 -0.1745
    2ALA      H    8  10.359   0.881  11.890  0.4940 -0.6752 -1.2827
    2ALA     CA    9  10.324   0.668  11.877 -0.7232  0.3316  0.1876
    2ALA     HA   10  10.235   0.610  11.854 -0.6100 -0.2684  1.1661
    2ALA     CB   11  10.430   0.672  11.763 -0.1257  0.0915  0.2775
    2ALA    HB1   12  10.380   0.694  11.669  0.7210 -3.2212 -1.0579
    2ALA    HB2   13  10.498   0.755  11.781 -1.2733  1.2068 -0.3554
    2ALA    HB3   14  10.484   0.578  11.755 -1.8779 -1.1377  1.7418
    2ALA      C   15  10.392   0.606  12.009  0.2517  0.2398 -0.5227
    2ALA      O   16  10.499   0.650  12.047 -0.1815  0.4456  0.6967
    3ALA      N   17  10.338   0.503  12.083 -0.3882 -0.1643 -0.4360
    3ALA      H   18  10.403   0.453  12.143 -0.3454  1.5154  1.0193
    3ALA     CA   19  10.197   0.457  12.081 -0.0150  0.1017 -0.3789
    3ALA     HA   20  10.146   0.487  11.990  1.2614 -1.1768 -1.5643
    3ALA     CB   21  10.202   0.305  12.066  0.0990  0.5153  0.2550
    3ALA    HB1   22  10.260   0.258  12.145 -2.0485  1.1083  2.2847
    3ALA    HB2   23  10.101   0.265  12.070  0.5470 -1.0256 -1.8034
    3ALA    HB3   24  10.250   0.273  11.973  1.8416 -1.2353  1.6848
    3ALA      C   25  10.116   0.494  12.207  0.6462  0.8619  0.1983
    3ALA      O   26  10.116   0.418  12.303  0.2386 -0.1142  0.0032
    4ALA      N   27  10.009   0.576  12.204  0.1250  0.3883 -0.4343
    4ALA      H   28  10.006   0.636  12.123 -0.2442  0.8556 -0.0771
    4ALA     CA   29   9.920   0.602  12.318  0.1576  0.1034  0.3622
    4ALA     HA   30   9.880   0.505  12.347 -0.7412  0.7805  1.5139
    4ALA     CB   31  10.004   0.666  12.431  0.0235  0.0902  0.0860
    4ALA    HB1   32   9.941   0.687  12.517 -2.1664 -1.3998 -1.0645
    4ALA    HB2   33  10.088   0.603  12.458  0.6005  1.4456  1.6243
    4ALA    HB3   34  10.037   0.764  12.398  1.6917 -0.6245 -0.4542
    4ALA      C   35   9.789   0.689  12.285  0.1008 -0.1528  0.1790
    4ALA      O   36   9.775   0.729  12.169  0.0635 -0.4605  0.3052
    5NME      N   37   9.700   0.724  12.380 -0.1628 -0.4506 -0.1691
    5NME      H   38   9.734   0.709  12.474 -1.2443  2.5797  0.8243
    5NME    CH3   39   9.569   0.777  12.353  0.1014 -0.0481 -0.0781
    5NME   HH31   40   9.499   0.695  12.340  1.0126 -0.9907  0.8262
    5NME   HH32   41   9.543   0.852  12.428  0.2561 -0.0198 -0.0516
    5NME   HH33   42   9.556   0.823  12.255 -1.5607 -2.2896 -1.0111
  20.91516  20.91516  20.91516
