Protein
   42
    1ACE   HH31    1   9.122  11.114  10.765 -2.0996  0.1797 -0.2619
    1ACE    CH3    2   9.053  11.131  10.847 -0.9849 -0.0019  0.7369
    1ACE   HH32    3   8.984  11.208  10.813  1.3745  1.0684 -1.8936
    1ACE   HH33    4   9.106  11.162  10.937 -1.7820 -1.5617  1.7994
    1ACE      C    5   8.980  11.013  10.890  0.7651 -0.3511  0.0730
    1ACE      O    6   9.015  10.951  10.985  0.2769  0.5243  0.5267
    2ALA      N    7   8.880  10.983  10.805  0.1454  0.1008  0.0077
    2ALA      H    8   8.880  11.027  10.714 -0.3824  0.2847  0.0881
    2ALA     CA    9   8.808  10.853  10.808 -0.7527 -0.2156  0.5141
    2ALA     HA   10   8.850  10.783  10.879  3.0563  0.5473 -0.7442
    2ALA     CB   11   8.659  10.881  10.837 -0.2684  0.4052 -0.2615
    2ALA    HB1   12   8.659  10.966  10.906 -0.2891  0.0031  0.2454
    2ALA    HB2   13   8.611  10.907  10.744  1.7824  1.8967 -0.9832
    2ALA    HB3   14   8.608  10.798  10.886  3.2533 -1.5483  0.4747
    2ALA      C   15   8.836  10.771  10.680  0.5812  0.4222  0.7655
    2ALA      O   16   8.900  10.829  10.590  0.3954 -0.2856  0.5526
    3ALA      N   17   8.786  10.646  10.659  0.4715  0.5755 -0.1331
    3ALA      H   18   8.732  10.604  10.733 -1.3085  0.5698 -1.3808
    3ALA     CA   19   8.825  10.567  10.532 -0.0198  0.1261  0.0802
    3ALA     HA   20   8.933  10.570  10.514  0.0840 -0.6468  0.5634
    3ALA     CB   21   8.764  10.427  10.540  0.0388  0.5360 -0.2916
    3ALA    HB1   22   8.808  10.381  10.628 -0.5692 -1.1751 -0.8515
    3ALA    HB2   23   8.657  10.433  10.560  0.0017  0.4221 -0.4584
    3ALA    HB3   24   8.772  10.370  10.448 -1.6201  1.5763 -1.1536
    3ALA      C   25   8.763  10.642  10.402 -1.0072  0.0287 -0.4386
    3ALA      O   26   8.646  10.621  10.368  0.3613  0.4190  0.1093
    4ALA      N   27   8.853  10.706  10.325  0.4656  0.4696  0.5221
    4ALA      H   28   8.944  10.719  10.367 -0.2224  2.8775  1.4000
    4ALA     CA   29   8.834  10.782  10.203  0.2059  0.0525  0.2063
    4ALA     HA   30   8.917  10.753  10.138 -0.0366  1.9249 -0.9914
    4ALA     CB   31   8.706  10.749  10.122  0.1864 -0.3371 -0.4877
    4ALA    HB1   32   8.617  10.769  10.181 -0.0466 -1.9325 -0.2459
    4ALA    HB2   33   8.697  10.807  10.030  0.9942 -1.0580 -1.0364
    4ALA    HB3   34   8.701  10.642  10.099 -1.5680 -0.6905  1.2813
    4ALA      C   35   8.871  10.938  10.218 -0.1398  0.0434 -0.2573
    4ALA      O   36   8.861  11.000  10.114  0.0293 -0.0315  0.2661
    5NME      N   37   8.915  10.994  10.335 -0.1721  0.0700 -0.2604
    5NME      H   38   8.939  10.926  10.405  0.3034 -0.8843 -1.3125
    5NME    CH3   39   8.910  11.133  10.370 -1.2693 -0.1258  0.4605
    5NME   HH31   40   9.004  11.187  10.357 -1.7604  0.7458  0.4507
    5NME   HH32   41   8.841  11.183  10.302  0.5313  1.2938 -0.3937
    5NME   HH33   42   8.880  11.156  10.472  1.6815  3.0751  0.7801
  20.91516  20.91516  20.91516
