Protein
   32
    1ACE   HH31    1  11.564   8.270   9.306  0.4413 -2.4014  0.4369
    1ACE    CH3    2  11.534   8.311   9.402  0.2359 -0.3232 -0.4676
    1ACE   HH32    3  11.471   8.398   9.386  0.7973  0.0540 -0.7009
    1ACE   HH33    4  11.616   8.353   9.460 -1.0017  1.2566  0.1872
    1ACE      C    5  11.469   8.205   9.491 -0.7205 -0.3152 -0.0846
    1ACE      O    6  11.552   8.123   9.540 -0.0893 -0.5195 -0.3260
    2ALA      N    7  11.339   8.197   9.498 -0.2484 -0.0012 -0.1748
    2ALA      H    8  11.282   8.261   9.444 -1.5461 -1.8655 -1.0903
    2ALA     CA    9  11.254   8.088   9.550  0.2724  0.0470 -0.3391
    2ALA     HA   10  11.269   8.002   9.485  0.0039 -1.1763  1.1551
    2ALA     CB   11  11.287   8.063   9.702  0.2572  0.2669  0.1947
    2ALA    HB1   12  11.226   7.984   9.747  0.5906 -1.1240 -1.6631
    2ALA    HB2   13  11.385   8.017   9.710  0.5440  0.3340 -2.0566
    2ALA    HB3   14  11.291   8.151   9.765 -0.8392  0.4796 -0.0036
    2ALA      C   15  11.105   8.132   9.545  0.6547  0.0708 -0.2234
    2ALA      O   16  11.064   8.222   9.474  0.3449  0.3655 -0.0409
    3ALA      N   17  11.013   8.066   9.622 -0.7464  0.5008  0.5232
    3ALA      H   18  11.046   8.002   9.692  0.4275 -0.5629 -0.9186
    3ALA     CA   19  10.868   8.064   9.604 -0.3405 -0.7877  0.0124
    3ALA     HA   20  10.850   8.106   9.505  0.0043  1.2458  0.7654
    3ALA     CB   21  10.827   7.919   9.611 -0.1804 -0.2615  0.5925
    3ALA    HB1   22  10.721   7.915   9.587 -0.0097  1.0280 -0.4923
    3ALA    HB2   23  10.871   7.872   9.523 -0.0746  0.7065  0.1233
    3ALA    HB3   24  10.852   7.871   9.706 -1.3155  1.4840  1.8390
    3ALA      C   25  10.808   8.152   9.711 -0.0565 -0.3753 -0.4379
    3ALA      O   26  10.720   8.103   9.780  0.0037  0.2492 -0.4168
    4NME      N   27  10.858   8.276   9.729 -0.2449  0.4009  0.1600
    4NME      H   28  10.936   8.308   9.674 -0.3084  0.2225 -0.0381
    4NME    CH3   29  10.811   8.363   9.836  0.1606  0.2132 -0.4895
    4NME   HH31   30  10.861   8.459   9.843 -1.4447  1.0722 -0.4699
    4NME   HH32   31  10.706   8.391   9.833  0.3584  0.8785 -1.2705
    4NME   HH33   32  10.837   8.315   9.931  2.9996  0.1457 -1.1785
  20.99041  20.99041  20.99041
