Protein
   42
    1ACE   HH31    1   8.641   9.515  11.341  0.0142 -2.4479 -0.9192
    1ACE    CH3    2   8.559   9.469  11.395 -0.8989 -0.0587 -0.1178
    1ACE   HH32    3   8.526   9.374  11.352  0.5351 -0.6371  0.0037
    1ACE   HH33    4   8.475   9.535  11.415  0.4432  1.3449  1.0259
    1ACE      C    5   8.603   9.415  11.533 -0.0999 -0.0503 -0.5814
    1ACE      O    6   8.664   9.494  11.605 -0.1247 -0.4668 -0.2029
    2ALA      N    7   8.569   9.287  11.563  0.3233 -0.5230  0.4979
    2ALA      H    8   8.497   9.245  11.506  0.4746  1.7400 -1.5318
    2ALA     CA    9   8.594   9.212  11.682 -0.1584 -0.3972 -0.4000
    2ALA     HA   10   8.583   9.107  11.655  1.7062 -0.6598 -0.2693
    2ALA     CB   11   8.740   9.232  11.733  0.5792 -0.1771  0.6586
    2ALA    HB1   12   8.806   9.181  11.663 -0.1109  2.4747 -2.1620
    2ALA    HB2   13   8.777   9.335  11.733 -0.1249  0.0852  0.9351
    2ALA    HB3   14   8.764   9.207  11.836  0.2933  0.2517  0.8349
    2ALA      C   15   8.490   9.241  11.786  0.7684  0.1632  0.0081
    2ALA      O   16   8.415   9.157  11.831  0.9417 -0.2853  0.0044
    3ALA      N   17   8.484   9.373  11.818 -0.0318 -0.2883  0.0401
    3ALA      H   18   8.557   9.424  11.769 -0.7474 -1.3048 -2.2334
    3ALA     CA   19   8.376   9.443  11.884 -0.0043  0.3990  0.2138
    3ALA     HA   20   8.360   9.395  11.981 -0.2929 -0.2977 -0.1692
    3ALA     CB   21   8.435   9.582  11.917 -0.0472  0.2556  0.0039
    3ALA    HB1   22   8.445   9.632  11.820 -2.8701  0.6703 -0.1775
    3ALA    HB2   23   8.361   9.627  11.984 -1.4530 -2.1762  0.2224
    3ALA    HB3   24   8.527   9.572  11.974 -1.3670 -0.9470  2.0236
    3ALA      C   25   8.248   9.448  11.804  0.3466 -0.2133 -0.4560
    3ALA      O   26   8.136   9.454  11.860 -0.8776 -0.4204  0.0188
    4ALA      N   27   8.260   9.417  11.672  0.2766 -0.2951  0.9065
    4ALA      H   28   8.349   9.427  11.626 -1.5569  1.6435 -2.5994
    4ALA     CA   29   8.143   9.415  11.583 -0.6692 -0.0025  0.2153
    4ALA     HA   30   8.052   9.401  11.642 -1.1519 -0.0960 -0.5535
    4ALA     CB   31   8.125   9.562  11.528 -1.0686 -0.4437  0.4128
    4ALA    HB1   32   8.213   9.599  11.476 -1.2201 -2.0311 -1.0452
    4ALA    HB2   33   8.036   9.582  11.468  0.4255  0.7767 -1.4866
    4ALA    HB3   34   8.101   9.618  11.619 -1.6466 -2.0478  1.2779
    4ALA      C   35   8.172   9.305  11.479 -0.7006  0.6355 -0.3663
    4ALA      O   36   8.283   9.263  11.461  0.3827  0.7435 -0.3331
    5NME      N   37   8.067   9.256  11.418  0.6083 -0.5169  0.2982
    5NME      H   38   7.974   9.287  11.443  0.6099  0.1633 -0.4715
    5NME    CH3   39   8.074   9.155  11.316  0.3147  0.7230  0.1228
    5NME   HH31   40   7.974   9.127  11.281  0.9994  0.1883 -1.4666
    5NME   HH32   41   8.124   9.200  11.231  1.8138 -0.5961  0.2574
    5NME   HH33   42   8.141   9.075  11.349 -1.4501 -0.5293  0.9040
  20.91516  20.91516  20.91516
