Protein
   32
    1ACE   HH31    1  10.804  10.465   9.450 -0.9537 -1.0864  0.8222
    1ACE    CH3    2  10.888  10.408   9.490 -0.2501 -0.1814  0.6565
    1ACE   HH32    3  10.958  10.367   9.416  2.5414 -0.4760  3.2718
    1ACE   HH33    4  10.844  10.325   9.545  3.3413 -0.4025  3.5634
    1ACE      C    5  10.969  10.498   9.576 -0.7102  0.3190  0.1906
    1ACE      O    6  10.940  10.507   9.695  0.1358 -0.7255  0.0398
    2ALA      N    7  11.064  10.569   9.512  0.8166 -0.3238 -0.3907
    2ALA      H    8  11.094  10.547   9.419  0.3083 -0.5482 -0.5076
    2ALA     CA    9  11.121  10.700   9.557 -0.0231  0.3895  0.2148
    2ALA     HA   10  11.092  10.739   9.654  2.6401  3.1522  0.0558
    2ALA     CB   11  11.271  10.695   9.542  0.9849  0.2645  0.1405
    2ALA    HB1   12  11.303  10.608   9.600  1.0126  0.0125 -0.2393
    2ALA    HB2   13  11.299  10.676   9.439  0.8560  2.9996 -0.4674
    2ALA    HB3   14  11.326  10.785   9.569  2.0746  0.0557 -1.3020
    2ALA      C   15  11.067  10.809   9.468  0.9732  0.2671  0.2935
    2ALA      O   16  10.955  10.792   9.420 -0.0262 -0.0957  0.2424
    3ALA      N   17  11.136  10.925   9.440 -0.5161  0.0896  0.0097
    3ALA      H   18  11.230  10.930   9.477 -0.9511 -2.4925  1.7524
    3ALA     CA   19  11.073  11.027   9.369 -0.6010 -0.6752 -0.5786
    3ALA     HA   20  10.967  11.015   9.391 -0.8030 -4.2171 -2.6706
    3ALA     CB   21  11.124  11.169   9.418  0.4720 -0.5736 -0.0905
    3ALA    HB1   22  11.089  11.187   9.519  0.3824  1.9636 -0.5115
    3ALA    HB2   23  11.230  11.182   9.399 -0.0425 -0.7377 -3.5712
    3ALA    HB3   24  11.064  11.237   9.357  0.2479 -0.6274  0.0644
    3ALA      C   25  11.094  11.004   9.218 -0.1378  0.1857 -0.2301
    3ALA      O   26  11.178  11.067   9.158  0.0002  0.1802  0.2763
    4NME      N   27  11.048  10.889   9.163 -0.5201  0.2229  0.0910
    4NME      H   28  10.981  10.833   9.214 -1.9263  1.4076 -0.3525
    4NME    CH3   29  11.087  10.830   9.037 -0.4286  0.5856 -0.9937
    4NME   HH31   30  11.088  10.909   8.961 -0.4319  0.7298 -0.8445
    4NME   HH32   31  11.193  10.804   9.043 -0.2188  1.3989 -0.9850
    4NME   HH33   32  11.033  10.740   9.007  2.3801 -2.2703  1.8695
  20.99041  20.99041  20.99041
