Protein
   42
    1ACE   HH31    1  10.299   5.994   8.105 -0.6621 -0.8593  1.2396
    1ACE    CH3    2  10.358   5.903   8.100  0.4017 -0.1712  0.5417
    1ACE   HH32    3  10.318   5.842   8.181  1.5224 -0.1148  1.1481
    1ACE   HH33    4  10.467   5.909   8.103  0.5663 -1.9677 -0.3172
    1ACE      C    5  10.338   5.825   7.973  0.3498 -0.4248  0.5480
    1ACE      O    6  10.279   5.878   7.878 -0.3343 -0.4465 -0.7053
    2ALA      N    7  10.390   5.700   7.970 -0.0922 -0.4596 -0.0411
    2ALA      H    8  10.431   5.659   8.053  1.5327  0.9779 -0.0914
    2ALA     CA    9  10.371   5.611   7.860 -0.0735  0.0555  0.6156
    2ALA     HA   10  10.381   5.673   7.771  2.5111  1.0937  1.5150
    2ALA     CB   11  10.484   5.510   7.870  0.1731  0.6437  0.0193
    2ALA    HB1   12  10.472   5.453   7.962 -1.2163  1.3211  0.2807
    2ALA    HB2   13  10.476   5.442   7.786  1.0538  0.3273  0.1803
    2ALA    HB3   14  10.580   5.561   7.861  1.5122 -1.8658 -0.8745
    2ALA      C   15  10.229   5.551   7.847 -0.6608  0.1850  0.2770
    2ALA      O   16  10.180   5.512   7.953  0.6059 -0.3534  0.4427
    3ALA      N   17  10.158   5.556   7.740  0.9944  0.6453  0.3128
    3ALA      H   18  10.069   5.512   7.759  0.9746  1.1584  1.4256
    3ALA     CA   19  10.165   5.646   7.620 -0.6269 -0.5359  0.8723
    3ALA     HA   20  10.202   5.742   7.655  0.9437 -0.7796  0.0019
    3ALA     CB   21  10.270   5.587   7.520 -0.0191 -0.3165 -0.0731
    3ALA    HB1   22  10.368   5.576   7.565 -0.1433 -2.3029 -0.1908
    3ALA    HB2   23  10.221   5.493   7.493 -1.2254  0.5722 -1.1671
    3ALA    HB3   24  10.279   5.652   7.432 -1.3226 -0.0759 -0.0577
    3ALA      C   25  10.031   5.670   7.550  0.0333  0.7633 -0.5763
    3ALA      O   26   9.927   5.606   7.572 -0.3841 -0.1650  0.1594
    4ALA      N   27  10.028   5.774   7.470  0.0713 -0.1382 -0.1519
    4ALA      H   28  10.118   5.817   7.458 -0.3805  1.0294  0.4019
    4ALA     CA   29   9.905   5.819   7.406  0.0480  0.6436  0.3737
    4ALA     HA   30   9.825   5.805   7.479  0.4549  0.0440  0.7252
    4ALA     CB   31   9.912   5.971   7.386  0.0465  0.1743  0.1676
    4ALA    HB1   32   9.827   5.998   7.324 -0.5147 -0.4761  0.6388
    4ALA    HB2   33   9.895   6.019   7.482 -0.0142  0.1594  0.1638
    4ALA    HB3   34  10.001   5.998   7.327  0.2324 -3.0141 -1.2167
    4ALA      C   35   9.863   5.745   7.275 -0.0302  0.8073 -0.2705
    4ALA      O   36   9.880   5.799   7.168  0.3566  0.4240 -0.6234
    5NME      N   37   9.800   5.625   7.283 -0.0926  0.5879  0.0098
    5NME      H   38   9.784   5.592   7.377 -0.8751 -0.3302 -0.4275
    5NME    CH3   39   9.758   5.550   7.165 -0.7916  0.2606 -0.2691
    5NME   HH31   40   9.729   5.450   7.196  2.0720 -0.4002  0.5835
    5NME   HH32   41   9.688   5.610   7.106  1.4581  3.1930 -0.1167
    5NME   HH33   42   9.841   5.539   7.095 -1.7446 -1.7024 -1.1385
  20.91516  20.91516  20.91516
