Protein
   42
    1ACE   HH31    1   9.599  16.078  13.583  2.9307 -2.1936  0.0281
    1ACE    CH3    2   9.624  16.135  13.493 -0.3352  0.0835  0.4015
    1ACE   HH32    3   9.544  16.134  13.419  0.8500 -2.0626 -0.9622
    1ACE   HH33    4   9.715  16.086  13.458  0.1499 -0.7624  2.6509
    1ACE      C    5   9.642  16.279  13.533  0.2753  0.2690  0.4278
    1ACE      O    6   9.596  16.325  13.635 -0.2427 -0.2159 -0.0245
    2ALA      N    7   9.713  16.352  13.447 -0.4024  0.6829 -0.2160
    2ALA      H    8   9.739  16.305  13.361  1.6160 -0.6196  1.0317
    2ALA     CA    9   9.760  16.493  13.469  0.4507  0.5328  0.6883
    2ALA     HA   10   9.856  16.505  13.419  1.3185 -1.6613  1.6541
    2ALA     CB   11   9.652  16.572  13.392  0.0340 -0.3505  1.0720
    2ALA    HB1   12   9.613  16.520  13.305  0.6154  2.3604 -0.9617
    2ALA    HB2   13   9.574  16.603  13.462 -1.4733  1.6273 -1.3291
    2ALA    HB3   14   9.705  16.660  13.355 -0.5338 -0.0123  1.0448
    2ALA      C   15   9.783  16.541  13.614 -0.4644  0.7682 -0.2715
    2ALA      O   16   9.755  16.654  13.648  0.2079  0.0602 -0.4493
    3ALA      N   17   9.823  16.457  13.718  0.0636 -0.0910  0.8293
    3ALA      H   18   9.824  16.510  13.804  1.1357  0.2264  0.6342
    3ALA     CA   19   9.913  16.340  13.709 -0.0630  0.2879 -0.0671
    3ALA     HA   20   9.904  16.292  13.612 -3.0045  0.3553  0.0828
    3ALA     CB   21  10.058  16.389  13.709 -0.4636 -0.1703 -0.5128
    3ALA    HB1   22  10.123  16.324  13.650  0.2124  3.0042 -3.6459
    3ALA    HB2   23  10.065  16.486  13.660  2.8665 -0.1787 -0.2963
    3ALA    HB3   24  10.098  16.401  13.810  1.7803 -1.4642 -1.1877
    3ALA      C   25   9.879  16.224  13.809  0.0382  0.3960 -0.4590
    3ALA      O   26   9.957  16.135  13.848  0.0589  0.2253 -0.0566
    4ALA      N   27   9.751  16.228  13.851 -0.0298  0.3092 -0.2367
    4ALA      H   28   9.707  16.316  13.830  2.2480  1.3932 -0.7644
    4ALA     CA   29   9.703  16.136  13.957  0.5305  0.3414 -0.0869
    4ALA     HA   30   9.737  16.034  13.938 -0.6355  0.0161 -0.4986
    4ALA     CB   31   9.765  16.200  14.078 -0.2884  0.2326  0.1375
    4ALA    HB1   32   9.737  16.306  14.084  0.6393  0.5088 -0.1128
    4ALA    HB2   33   9.725  16.150  14.166 -1.8592 -1.5333 -1.5093
    4ALA    HB3   34   9.874  16.195  14.072 -0.4253 -1.8448 -1.2991
    4ALA      C   35   9.549  16.137  13.970  0.2396 -0.5526 -0.8629
    4ALA      O   36   9.497  16.070  14.062 -0.5029  0.0023 -0.1402
    5NME      N   37   9.479  16.209  13.884  0.2421 -0.3882  0.0283
    5NME      H   38   9.530  16.259  13.813  2.1540 -0.7922  1.0372
    5NME    CH3   39   9.330  16.202  13.882 -0.6608 -0.6128 -0.1222
    5NME   HH31   40   9.289  16.208  13.983  0.6587 -0.6401  0.4291
    5NME   HH32   41   9.292  16.294  13.838  1.1092  1.6319  2.6555
    5NME   HH33   42   9.304  16.116  13.819 -0.3105  0.5547 -1.9166
  20.91516  20.91516  20.91516
