Protein
   60
    1ACE   HH31    1  19.947  23.264  22.331  0.3488 -0.7897  0.2351
    1ACE    CH3    2  19.966  23.371  22.327 -0.7398 -0.5845  0.3051
    1ACE   HH32    3  19.870  23.412  22.296 -0.3111  0.7899  0.7702
    1ACE   HH33    4  20.014  23.409  22.417  0.7855  0.1541 -0.7625
    1ACE      C    5  20.058  23.406  22.215 -0.6517  0.1220  0.1435
    1ACE      O    6  20.016  23.428  22.099 -0.3762  0.4999 -0.9813
    2TRP      N    7  20.189  23.436  22.239 -0.5850  0.7044  0.4653
    2TRP      H    8  20.243  23.468  22.160  0.9609  0.8322  1.5310
    2TRP     CA    9  20.256  23.459  22.358 -1.0942 -0.6140 -0.1528
    2TRP     HA   10  20.194  23.507  22.433 -2.7398 -0.6804 -1.4039
    2TRP     CB   11  20.303  23.329  22.413 -0.2359 -0.4919 -0.4277
    2TRP    HB1   12  20.370  23.276  22.344  0.9456 -0.7155  0.8450
    2TRP    HB2   13  20.221  23.260  22.432 -0.4376  0.3216  2.0348
    2TRP     CG   14  20.380  23.342  22.539  0.3236  0.6114 -0.5974
    2TRP    CD1   15  20.515  23.365  22.563  0.3625  0.0365  0.5866
    2TRP    HD1   16  20.589  23.368  22.485 -0.0027  0.4464  0.2494
    2TRP    NE1   17  20.538  23.375  22.695 -0.0614  0.7009 -0.1558
    2TRP    HE1   18  20.630  23.381  22.737 -0.8567 -1.1054  2.0858
    2TRP    CE2   19  20.418  23.365  22.766 -0.1823 -0.4572 -0.1809
    2TRP    CZ2   20  20.388  23.392  22.903  0.6066  0.2998 -0.4193
    2TRP    HZ2   21  20.469  23.422  22.968  0.9574 -0.8401 -0.3056
    2TRP    CH2   22  20.249  23.368  22.945 -0.6553 -0.0106 -0.3382
    2TRP    HH2   23  20.227  23.375  23.050 -0.9107  2.8300 -0.5077
    2TRP    CZ3   24  20.147  23.332  22.854 -0.5353 -0.4903  0.3495
    2TRP    HZ3   25  20.044  23.328  22.886 -1.0334  0.3365 -1.0626
    2TRP    CE3   26  20.185  23.317  22.719 -0.4911 -0.1981  0.7401
    2TRP    HE3   27  20.116  23.271  22.650  0.4610  0.1865 -0.5152
    2TRP    CD2   28  20.318  23.332  22.672 -1.1863 -0.0701 -0.2649
    2TRP      C   29  20.389  23.541  22.332  0.1504  0.3367  0.7196
    2TRP      O   30  20.475  23.499  22.248 -0.1658 -0.5700 -0.0961
    3TRP      N   31  20.415  23.651  22.404 -0.4072  0.5072  0.1365
    3TRP      H   32  20.506  23.690  22.382 -1.8941  3.2117 -1.7939
    3TRP     CA   33  20.355  23.693  22.526  0.0121 -0.2953  0.3356
    3TRP     HA   34  20.292  23.615  22.568  0.4477 -0.4643  0.6875
    3TRP     CB   35  20.260  23.803  22.501  0.1627 -0.7968  0.7622
    3TRP    HB1   36  20.204  23.817  22.593 -1.4933  1.1132 -0.4350
    3TRP    HB2   37  20.321  23.887  22.466 -1.8037  0.3475 -0.1111
    3TRP     CG   38  20.153  23.784  22.399  0.5920 -0.1998  0.0424
    3TRP    CD1   39  20.022  23.769  22.432 -0.0523  0.1916  0.6292
    3TRP    HD1   40  19.979  23.771  22.531  0.0903 -2.6585  0.8246
    3TRP    NE1   41  19.952  23.756  22.310 -0.5980  0.8871  0.6217
    3TRP    HE1   42  19.853  23.771  22.299 -0.1495  3.1322 -1.4433
    3TRP    CE2   43  20.036  23.772  22.196  0.8784  0.3230 -0.5755
    3TRP    CZ2   44  20.002  23.747  22.057 -0.2831  0.2693 -0.9355
    3TRP    HZ2   45  19.897  23.743  22.029 -1.1695 -0.4068  2.0738
    3TRP    CH2   46  20.109  23.741  21.969  0.3360  0.9291 -0.1826
    3TRP    HH2   47  20.090  23.738  21.863  1.9790 -0.8085 -0.4851
    3TRP    CZ3   48  20.243  23.744  22.013  0.7065  0.1451  0.2678
    3TRP    HZ3   49  20.321  23.753  21.939 -0.3437  2.2393 -0.6497
    3TRP    CE3   50  20.275  23.754  22.153  0.2402 -1.7417  0.3567
    3TRP    HE3   51  20.374  23.762  22.194 -0.0932 -0.4920  0.9674
    3TRP    CD2   52  20.170  23.776  22.252  0.0965 -0.0132  0.0478
    3TRP      C   53  20.458  23.735  22.632 -0.0762  0.2818 -0.1872
    3TRP      O   54  20.559  23.803  22.603 -0.1606  0.2872  0.4537
    4NME      N   55  20.427  23.694  22.757 -0.6334  0.3770  0.2725
    4NME      H   56  20.358  23.620  22.765  0.1199 -0.3866 -0.1733
    4NME    CH3   57  20.521  23.718  22.867 -0.1578 -0.2059 -0.3038
    4NME   HH31   58  20.534  23.826  22.876 -1.6562 -0.0472  0.4428
    4NME   HH32   59  20.478  23.676  22.958  1.6874 -1.6626 -0.0451
    4NME   HH33   60  20.611  23.660  22.846 -1.2519 -3.8106  3.3937
  41.12396  41.12396  41.12396
