Protein
   42
    1ACE   HH31    1   5.743  15.935   3.595 -1.0203 -1.3526 -3.3166
    1ACE    CH3    2   5.672  16.016   3.580 -0.1288  0.0870 -0.3999
    1ACE   HH32    3   5.724  16.093   3.522 -1.6437  1.6270  0.1983
    1ACE   HH33    4   5.631  16.035   3.679  1.2414 -0.1647  0.2308
    1ACE      C    5   5.557  15.962   3.501  0.2074 -0.8182 -1.1932
    1ACE      O    6   5.459  15.908   3.555 -0.0217 -0.9256 -0.2396
    2ALA      N    7   5.567  15.969   3.371  0.7968  0.2578 -0.3823
    2ALA      H    8   5.652  16.012   3.337  0.6578  0.0812 -0.9725
    2ALA     CA    9   5.477  15.898   3.276 -0.2112  0.6321 -0.1797
    2ALA     HA   10   5.388  15.959   3.262 -1.7518 -1.5456 -0.3955
    2ALA     CB   11   5.536  15.897   3.137 -0.2637  0.6626  0.2837
    2ALA    HB1   12   5.632  15.846   3.131 -0.9240 -0.4198 -1.7671
    2ALA    HB2   13   5.471  15.846   3.067 -0.0632 -0.9648  1.2410
    2ALA    HB3   14   5.540  15.996   3.091 -0.6835  0.1886 -0.8103
    2ALA      C   15   5.441  15.754   3.325  0.5466  0.4869  0.3552
    2ALA      O   16   5.521  15.668   3.324 -0.5740  0.2886 -0.0454
    3ALA      N   17   5.320  15.717   3.372 -0.0690  0.2852  0.1394
    3ALA      H   18   5.314  15.617   3.389 -0.0902  0.3246  0.3613
    3ALA     CA   19   5.203  15.810   3.395  0.4597 -0.9383  0.6105
    3ALA     HA   20   5.244  15.911   3.403  0.9674 -1.2593  2.6039
    3ALA     CB   21   5.112  15.811   3.269  0.0881 -0.4492  0.1194
    3ALA    HB1   22   5.172  15.840   3.183 -0.2441 -0.7764 -0.2269
    3ALA    HB2   23   5.067  15.712   3.259  0.8483 -0.8490  0.5797
    3ALA    HB3   24   5.035  15.887   3.281  1.6796  1.4467 -1.0192
    3ALA      C   25   5.132  15.794   3.531  0.1134  0.4578 -0.2540
    3ALA      O   26   5.009  15.793   3.539 -0.1298  0.5333 -0.0855
    4ALA      N   27   5.209  15.783   3.640  0.3005  0.0612  0.7378
    4ALA      H   28   5.306  15.793   3.612  0.2806  0.5377  0.8333
    4ALA     CA   29   5.162  15.757   3.783  0.1977  0.4595  0.6612
    4ALA     HA   30   5.055  15.765   3.802  0.6871  0.0341  4.2309
    4ALA     CB   31   5.191  15.610   3.815  0.6818 -0.5130  0.1757
    4ALA    HB1   32   5.298  15.594   3.802  0.5347 -2.3592  0.9193
    4ALA    HB2   33   5.157  15.575   3.913 -2.0099  0.2259 -0.4058
    4ALA    HB3   34   5.134  15.552   3.743 -0.5741  1.8394 -0.8198
    4ALA      C   35   5.220  15.861   3.881  0.3599 -0.3929  0.2278
    4ALA      O   36   5.174  15.857   3.991 -0.4542 -0.5570 -0.1721
    5NME      N   37   5.322  15.942   3.848 -0.2785  0.3175 -0.1642
    5NME      H   38   5.372  15.918   3.763 -0.8705 -0.5006 -0.3002
    5NME    CH3   39   5.379  16.044   3.934 -0.3691  0.0833 -0.6952
    5NME   HH31   40   5.475  16.084   3.901 -0.7008  2.4551  0.8550
    5NME   HH32   41   5.316  16.128   3.964  1.6584  1.1344  0.8676
    5NME   HH33   42   5.403  15.994   4.028 -1.9026  1.6638  0.6348
  20.91516  20.91516  20.91516
