Protein
   42
    1ACE   HH31    1  10.916  10.529  13.087 -0.6078  0.3625  1.6439
    1ACE    CH3    2  10.814  10.567  13.091 -0.7952  0.1316 -0.0392
    1ACE   HH32    3  10.821  10.666  13.137 -0.0078 -1.2012  2.9757
    1ACE   HH33    4  10.746  10.509  13.154 -0.4790  2.2070  2.3321
    1ACE      C    5  10.745  10.580  12.957 -0.4124 -0.5946 -0.2322
    1ACE      O    6  10.693  10.686  12.931  0.5677  0.0348  0.5079
    2ALA      N    7  10.721  10.469  12.886  0.7915  0.4020 -0.1314
    2ALA      H    8  10.734  10.388  12.944  0.0369  0.4584  0.1206
    2ALA     CA    9  10.640  10.450  12.763  0.3744  0.2095  0.0182
    2ALA     HA   10  10.709  10.416  12.686  1.9172  1.6466  0.7025
    2ALA     CB   11  10.554  10.334  12.814  0.2611  0.0265  0.3111
    2ALA    HB1   12  10.628  10.256  12.834  1.8797  1.1375 -1.0768
    2ALA    HB2   13  10.511  10.364  12.910  0.2140  1.7745 -0.2373
    2ALA    HB3   14  10.481  10.307  12.739  0.9809 -1.8547  0.2033
    2ALA      C   15  10.561  10.572  12.713  0.1567 -0.2485  0.0102
    2ALA      O   16  10.594  10.612  12.602  0.0115 -0.7128  0.4974
    3ALA      N   17  10.458  10.624  12.783 -0.4370 -0.1827 -0.1387
    3ALA      H   18  10.448  10.584  12.875  2.0180  0.9030  0.6737
    3ALA     CA   19  10.379  10.747  12.756  0.8272 -0.0520 -0.0450
    3ALA     HA   20  10.310  10.710  12.680 -0.3597  0.9182  0.5187
    3ALA     CB   21  10.293  10.783  12.876  0.2967  0.1957  0.6649
    3ALA    HB1   22  10.201  10.725  12.883  0.7936 -0.6623  0.2291
    3ALA    HB2   23  10.358  10.772  12.962  0.1646  0.7950  0.8501
    3ALA    HB3   24  10.266  10.888  12.867  0.6729  0.3160  0.9176
    3ALA      C   25  10.455  10.874  12.702 -0.7301  0.0534 -0.5815
    3ALA      O   26  10.403  10.956  12.630 -0.1220  0.2260  0.0345
    4ALA      N   27  10.586  10.880  12.725  0.0342 -0.2759 -0.1106
    4ALA      H   28  10.626  10.804  12.778 -2.1700 -1.4818 -0.0384
    4ALA     CA   29  10.665  10.995  12.684 -0.3483  0.2143  0.4622
    4ALA     HA   30  10.621  11.029  12.590 -2.6455 -1.4232  0.8687
    4ALA     CB   31  10.644  11.108  12.782  0.3132 -0.3559  0.6441
    4ALA    HB1   32  10.674  11.069  12.880 -0.0209  0.2854  1.0094
    4ALA    HB2   33  10.705  11.195  12.758 -2.4043  0.7375 -3.1883
    4ALA    HB3   34  10.546  11.154  12.790  0.0055 -1.1131  1.3569
    4ALA      C   35  10.815  10.958  12.681  0.2113  0.2864  0.5284
    4ALA      O   36  10.900  11.056  12.666 -0.0022 -0.1722  0.5147
    5NME      N   37  10.854  10.828  12.681 -0.2851  0.0993 -0.6117
    5NME      H   38  10.795  10.749  12.658 -0.9598  0.5460 -0.4692
    5NME    CH3   39  10.997  10.795  12.682 -0.1440 -0.0497 -0.1004
    5NME   HH31   40  11.047  10.869  12.620  0.9391 -0.6475  0.0388
    5NME   HH32   41  11.041  10.793  12.782  1.4864 -0.4075 -0.7903
    5NME   HH33   42  11.014  10.693  12.647 -1.5051 -0.9466  1.6531
  20.91516  20.91516  20.91516
