Protein
   42
    1ACE   HH31    1  13.108   7.732  12.115  0.3539  0.7738 -0.1568
    1ACE    CH3    2  13.065   7.785  12.200 -0.9077 -0.4383 -0.0011
    1ACE   HH32    3  13.001   7.858  12.151  1.2223 -0.9305 -3.9100
    1ACE   HH33    4  13.152   7.829  12.248 -0.2827  0.6245 -1.9998
    1ACE      C    5  13.001   7.683  12.286  0.7428  0.3883  0.7256
    1ACE      O    6  12.960   7.583  12.229 -0.1008 -0.0921 -0.7623
    2ALA      N    7  12.984   7.713  12.412 -0.0355 -0.5972  0.5774
    2ALA      H    8  13.001   7.810  12.438  0.3527 -0.3288 -0.6332
    2ALA     CA    9  12.925   7.615  12.506  0.1411 -0.0825 -0.4535
    2ALA     HA   10  12.877   7.536  12.448 -1.1945  1.0589 -0.9605
    2ALA     CB   11  13.038   7.540  12.571  0.4374 -0.3295  0.1878
    2ALA    HB1   12  13.109   7.607  12.621 -0.0317  2.1963 -2.2400
    2ALA    HB2   13  12.995   7.468  12.640  0.0073  0.5929  0.9049
    2ALA    HB3   14  13.094   7.491  12.492  0.1862  1.1704 -0.9540
    2ALA      C   15  12.810   7.660  12.598 -0.4778 -0.7305 -0.2250
    2ALA      O   16  12.826   7.680  12.716 -0.1436 -0.1849 -0.1071
    3ALA      N   17  12.689   7.673  12.543 -0.1891 -0.2004  0.4329
    3ALA      H   18  12.620   7.677  12.618  1.4535  1.1778  1.9617
    3ALA     CA   19  12.644   7.677  12.402 -0.3136  0.0536 -0.0934
    3ALA     HA   20  12.693   7.601  12.342  1.0315  1.0845 -0.3472
    3ALA     CB   21  12.498   7.634  12.391 -0.4910  0.0081  0.1964
    3ALA    HB1   22  12.483   7.543  12.449 -0.5898  0.5199  0.9838
    3ALA    HB2   23  12.435   7.709  12.438  1.1931  0.7112  1.4279
    3ALA    HB3   24  12.475   7.620  12.285 -0.9325 -0.1179  0.3000
    3ALA      C   25  12.680   7.809  12.335  0.5793  1.0181  0.6084
    3ALA      O   26  12.683   7.819  12.214  0.3859 -0.1698  0.0513
    4ALA      N   27  12.709   7.913  12.412  0.2258 -0.4265 -0.7208
    4ALA      H   28  12.718   7.894  12.511  3.0552  0.2155 -0.7923
    4ALA     CA   29  12.764   8.042  12.368  0.1386 -0.4983 -0.2492
    4ALA     HA   30  12.751   8.053  12.261  2.3663  1.1956 -0.4152
    4ALA     CB   31  12.685   8.163  12.429 -0.5482  0.2107 -0.3412
    4ALA    HB1   32  12.672   8.162  12.537 -1.0529 -1.1161 -0.3949
    4ALA    HB2   33  12.730   8.256  12.397 -1.8862  0.8376 -0.4640
    4ALA    HB3   34  12.586   8.159  12.384  0.1729 -1.0804 -1.9893
    4ALA      C   35  12.917   8.059  12.397  0.1145  0.3768 -0.8920
    4ALA      O   36  12.971   7.999  12.495  0.3934 -0.1534  0.0044
    5NME      N   37  12.984   8.153  12.330  0.5851  0.3779  0.1939
    5NME      H   38  12.927   8.192  12.257 -0.5519  0.0231  0.8482
    5NME    CH3   39  13.114   8.207  12.359 -0.3396 -0.0306 -0.1644
    5NME   HH31   40  13.182   8.186  12.277  1.5117 -0.5437  1.4047
    5NME   HH32   41  13.095   8.313  12.369 -1.6027 -0.0651 -1.7697
    5NME   HH33   42  13.160   8.167  12.449  0.9043 -0.2745 -0.8818
  20.91516  20.91516  20.91516
