Protein
   42
    1ACE   HH31    1  17.336   1.200  12.535  0.6432  0.7284  1.1390
    1ACE    CH3    2  17.288   1.298  12.523 -0.5251  0.1075  0.5592
    1ACE   HH32    3  17.347   1.383  12.556  0.3751 -0.9483  1.7815
    1ACE   HH33    4  17.205   1.294  12.593 -0.4390 -1.8294  0.6183
    1ACE      C    5  17.233   1.297  12.388 -0.1006 -0.0958  0.8850
    1ACE      O    6  17.274   1.213  12.302  0.0169 -0.5013 -0.1580
    2ALA      N    7  17.120   1.361  12.367  0.5226  0.3885  0.2566
    2ALA      H    8  17.085   1.418  12.443  0.2064 -0.2932  0.6376
    2ALA     CA    9  17.033   1.352  12.246 -0.0737 -0.1914 -0.2619
    2ALA     HA   10  17.023   1.244  12.235 -0.8427 -0.1086 -0.4636
    2ALA     CB   11  16.890   1.408  12.266  0.6447 -0.1574 -0.9604
    2ALA    HB1   12  16.897   1.517  12.278  0.1019 -0.2661  0.3798
    2ALA    HB2   13  16.827   1.382  12.181 -2.2046 -2.1171  1.5732
    2ALA    HB3   14  16.839   1.375  12.356  2.3143  0.8665  0.4192
    2ALA      C   15  17.100   1.403  12.114  0.4865 -0.4937  0.2670
    2ALA      O   16  17.099   1.525  12.082 -0.3042  0.0224  0.5682
    3ALA      N   17  17.164   1.316  12.028 -0.2204 -0.2653  0.0947
    3ALA      H   18  17.199   1.228  12.062 -0.6361 -0.4507  0.0564
    3ALA     CA   19  17.172   1.333  11.881 -0.0110  0.2037  0.3678
    3ALA     HA   20  17.268   1.381  11.862  0.4418 -1.1414 -0.8427
    3ALA     CB   21  17.177   1.190  11.822 -0.3195 -0.1601  0.6171
    3ALA    HB1   22  17.138   1.185  11.721  2.9880  0.3162 -0.8082
    3ALA    HB2   23  17.279   1.150  11.823  0.2485  1.2449  0.3285
    3ALA    HB3   24  17.120   1.126  11.889 -0.0216 -2.6484 -1.3574
    3ALA      C   25  17.060   1.422  11.819  0.0401 -0.1059  0.1492
    3ALA      O   26  16.944   1.408  11.854 -0.1682 -0.8537 -0.6046
    4ALA      N   27  17.095   1.506  11.723  0.2208 -0.1924  0.1496
    4ALA      H   28  17.194   1.507  11.706  0.3404  3.3727  0.0854
    4ALA     CA   29  17.016   1.586  11.636 -0.6958  0.3926 -0.4097
    4ALA     HA   30  17.083   1.645  11.574  0.4099  1.1419  1.4007
    4ALA     CB   31  16.947   1.490  11.538  0.9136 -0.7152 -0.2574
    4ALA    HB1   32  16.852   1.450  11.575 -1.1827  2.3544 -1.8626
    4ALA    HB2   33  16.914   1.544  11.450 -1.9737 -1.1909  0.4055
    4ALA    HB3   34  17.013   1.412  11.500  1.0095 -2.0945  2.5059
    4ALA      C   35  16.920   1.695  11.694  0.2246  0.2128 -0.7844
    4ALA      O   36  16.914   1.805  11.631  0.5644  0.2424 -0.0231
    5NME      N   37  16.853   1.675  11.810 -0.2083  0.9071 -0.8885
    5NME      H   38  16.862   1.584  11.852  1.6016  0.7357 -1.5635
    5NME    CH3   39  16.784   1.772  11.899  0.0371  0.8231  0.8843
    5NME   HH31   40  16.823   1.771  12.001  0.2296 -1.1366  0.8198
    5NME   HH32   41  16.808   1.866  11.851 -1.4278  0.2693 -1.0889
    5NME   HH33   42  16.676   1.754  11.897 -0.0870  1.5076  1.0718
  20.91516  20.91516  20.91516
