Protein
   42
    1ACE   HH31    1   8.038  12.279  14.277  0.6772 -0.7948  0.0086
    1ACE    CH3    2   8.115  12.239  14.210  1.0265 -0.0520 -0.0460
    1ACE   HH32    3   8.158  12.323  14.157  0.7984 -0.9593 -1.7707
    1ACE   HH33    4   8.080  12.175  14.129  0.8168  0.7353 -0.5878
    1ACE      C    5   8.223  12.166  14.282 -0.1140 -0.4115 -0.1827
    1ACE      O    6   8.340  12.209  14.265  0.5400 -0.5552  0.4160
    2ALA      N    7   8.183  12.068  14.357 -0.6989 -0.6227  0.0415
    2ALA      H    8   8.085  12.060  14.379 -1.4475  3.9079 -0.7692
    2ALA     CA    9   8.271  11.969  14.413 -0.3483 -0.1692  0.8098
    2ALA     HA   10   8.206  11.889  14.446  0.6917 -2.2676 -1.8440
    2ALA     CB   11   8.365  11.902  14.311 -0.7584 -0.0233 -0.0763
    2ALA    HB1   12   8.312  11.850  14.231  0.4950 -0.2617 -0.7830
    2ALA    HB2   13   8.429  11.976  14.263 -0.8848 -0.4204 -0.8850
    2ALA    HB3   14   8.404  11.812  14.361  0.2546  0.0606 -0.6716
    2ALA      C   15   8.333  12.007  14.553  0.5558  0.0239 -0.5923
    2ALA      O   16   8.324  11.929  14.644  0.4048  0.1403 -0.1220
    3ALA      N   17   8.395  12.126  14.568 -0.1250  0.5935 -0.0545
    3ALA      H   18   8.422  12.178  14.487 -1.4930  3.9071  1.4322
    3ALA     CA   19   8.432  12.192  14.692  0.3975 -0.1500 -0.3177
    3ALA     HA   20   8.426  12.297  14.666  0.2570  0.4105  1.8228
    3ALA     CB   21   8.331  12.178  14.805  0.2983  0.3218 -0.1249
    3ALA    HB1   22   8.230  12.168  14.764  0.1854 -1.3634  0.4639
    3ALA    HB2   23   8.352  12.093  14.871 -0.6068  0.7906  0.7996
    3ALA    HB3   24   8.326  12.275  14.854 -1.7650 -0.8020  2.1118
    3ALA      C   25   8.586  12.176  14.726 -0.0723 -0.5643 -0.2080
    3ALA      O   26   8.649  12.271  14.768 -0.0864 -1.0987 -0.0333
    4ALA      N   27   8.641  12.060  14.693 -0.4897  0.2350 -0.0153
    4ALA      H   28   8.580  11.996  14.644  0.7818  0.7547 -2.4069
    4ALA     CA   29   8.787  12.041  14.663  0.5293  0.3279 -0.9064
    4ALA     HA   30   8.837  12.137  14.678  1.7697 -0.4312  0.1160
    4ALA     CB   31   8.845  11.958  14.772 -0.2367  0.2006 -0.8623
    4ALA    HB1   32   8.825  11.985  14.875  2.9191  3.0863 -0.8497
    4ALA    HB2   33   8.808  11.855  14.771 -0.1030  0.0003  2.8654
    4ALA    HB3   34   8.952  11.976  14.767 -0.3829  1.2754 -0.3315
    4ALA      C   35   8.815  11.995  14.518 -0.6530  0.4402 -0.8851
    4ALA      O   36   8.748  11.906  14.464  0.6101  0.3537 -0.6129
    5NME      N   37   8.903  12.069  14.454  1.0320 -0.4969  0.1734
    5NME      H   38   8.937  12.152  14.501 -0.4010 -1.1543  2.5393
    5NME    CH3   39   8.932  12.040  14.315  0.4047 -0.1147  0.5938
    5NME   HH31   40   8.992  12.124  14.279 -1.0632 -0.3506 -2.7152
    5NME   HH32   41   8.987  11.947  14.302  0.7653  0.2545 -0.6353
    5NME   HH33   42   8.842  12.043  14.254  0.1104 -1.1394  0.9599
  20.91516  20.91516  20.91516
