Protein
   32
    1ACE   HH31    1   4.974  10.175  12.982  0.2771 -2.4058  3.4952
    1ACE    CH3    2   5.002  10.094  12.914 -0.4281 -0.2201  0.3806
    1ACE   HH32    3   5.070  10.128  12.835 -2.2446  0.7873 -0.8377
    1ACE   HH33    4   4.907  10.056  12.878 -0.9835 -0.7424  2.2678
    1ACE      C    5   5.070   9.989  12.998  0.5580  0.4297  1.1010
    1ACE      O    6   5.003   9.908  13.061  0.7751  0.0928 -0.2532
    2ALA      N    7   5.201  10.005  13.004 -0.1243  0.2307  0.5558
    2ALA      H    8   5.243  10.072  12.941  3.2840 -3.3870 -1.5177
    2ALA     CA    9   5.284   9.901  13.065  0.1813 -0.6357 -0.0473
    2ALA     HA   10   5.389   9.915  13.038  0.5835  3.4824  2.7217
    2ALA     CB   11   5.295   9.934  13.220 -0.4444 -0.4754  0.2239
    2ALA    HB1   12   5.371   9.875  13.271  0.5127 -0.4387 -1.0977
    2ALA    HB2   13   5.324  10.038  13.235  1.9375 -0.8831 -1.0923
    2ALA    HB3   14   5.201   9.910  13.268  0.3228 -1.2840  1.3782
    2ALA      C   15   5.233   9.758  13.028 -0.5053 -0.3164  0.4346
    2ALA      O   16   5.189   9.724  12.914 -0.3067  0.4707 -0.2505
    3ALA      N   17   5.244   9.671  13.128  0.1411 -0.2767  0.2253
    3ALA      H   18   5.279   9.690  13.221  0.2791 -1.2046  0.3855
    3ALA     CA   19   5.201   9.534  13.113 -0.2776  0.3939  0.3746
    3ALA     HA   20   5.187   9.522  13.006  1.9345 -1.5130  0.2323
    3ALA     CB   21   5.316   9.445  13.168 -0.3102 -0.2281  0.3892
    3ALA    HB1   22   5.333   9.444  13.276  0.8665  0.2651  0.2221
    3ALA    HB2   23   5.289   9.343  13.141 -1.7987  0.4813 -0.9318
    3ALA    HB3   24   5.400   9.469  13.103  1.1562  0.4964  2.4592
    3ALA      C   25   5.067   9.512  13.184  0.0969 -0.1603 -0.1133
    3ALA      O   26   5.044   9.418  13.265 -0.3004  0.6734 -0.2563
    4NME      N   27   4.970   9.602  13.152 -1.0880  0.2199  0.0985
    4NME      H   28   5.000   9.667  13.080  1.4658 -0.8962  0.0573
    4NME    CH3   29   4.849   9.632  13.219  1.0349  0.8818 -0.2598
    4NME   HH31   30   4.780   9.547  13.221 -0.0277  1.6215 -2.5537
    4NME   HH32   31   4.874   9.639  13.325  0.6206 -3.1227  0.2524
    4NME   HH33   32   4.796   9.718  13.177 -1.4684  0.5722  1.9145
  20.99041  20.99041  20.99041
