Protein
   32
    1ACE   HH31    1   9.209   8.661  12.203 -1.4895 -1.8742  1.6549
    1ACE    CH3    2   9.256   8.684  12.299  0.0661 -0.6750  0.6649
    1ACE   HH32    3   9.198   8.764  12.344  0.8272  1.2368 -1.5515
    1ACE   HH33    4   9.359   8.714  12.283  0.3484 -2.4609 -1.2244
    1ACE      C    5   9.249   8.556  12.377  0.2104 -1.4463  0.0383
    1ACE      O    6   9.154   8.532  12.452 -0.7659 -0.1843 -0.0880
    2ALA      N    7   9.348   8.477  12.344 -0.2250 -0.4562  0.3279
    2ALA      H    8   9.394   8.513  12.261  0.8706 -0.7388  0.7985
    2ALA     CA    9   9.378   8.340  12.376 -0.3076  0.8463  0.2449
    2ALA     HA   10   9.376   8.292  12.279  0.8899  2.0884 -0.4054
    2ALA     CB   11   9.521   8.323  12.428 -0.4186  0.2752  0.8182
    2ALA    HB1   12   9.531   8.227  12.479  0.7032 -0.3501 -0.5157
    2ALA    HB2   13   9.589   8.326  12.343 -0.8546  0.8275  0.4870
    2ALA    HB3   14   9.551   8.408  12.490  1.8475  0.4129 -0.3648
    2ALA      C   15   9.284   8.257  12.466  0.3502  0.0109 -0.4111
    2ALA      O   16   9.234   8.157  12.425 -0.0425  0.4491  0.2247
    3ALA      N   17   9.260   8.303  12.591 -0.2292 -0.0302  0.8160
    3ALA      H   18   9.270   8.403  12.606 -0.8312 -0.0161  1.1598
    3ALA     CA   19   9.179   8.233  12.685  0.3150  0.0593  0.2320
    3ALA     HA   20   9.212   8.130  12.689 -2.2179 -0.8841  4.5871
    3ALA     CB   21   9.195   8.291  12.824 -0.2237 -0.0425  0.0514
    3ALA    HB1   22   9.194   8.400  12.832 -0.6098  0.1301 -1.7715
    3ALA    HB2   23   9.119   8.245  12.888 -0.0850  1.1430  1.1137
    3ALA    HB3   24   9.291   8.259  12.863 -0.2366  0.8474  0.8640
    3ALA      C   25   9.030   8.221  12.649  0.2357 -0.0791 -0.6970
    3ALA      O   26   8.954   8.144  12.710 -0.2991 -0.0548 -0.1515
    4NME      N   27   8.990   8.293  12.543  0.3494  0.1377 -0.3269
    4NME      H   28   9.055   8.362  12.511  0.1316  0.3477 -0.3203
    4NME    CH3   29   8.861   8.275  12.469  0.2477  0.3208 -0.0966
    4NME   HH31   30   8.780   8.287  12.541  0.7769 -1.0003  0.7765
    4NME   HH32   31   8.855   8.350  12.390 -0.0360  0.0865 -0.3042
    4NME   HH33   32   8.861   8.183  12.410  2.5482  1.3689 -1.8847
  20.99041  20.99041  20.99041
