Protein
   32
    1ACE   HH31    1  11.470  13.469  12.554  0.2260 -1.0499  0.4075
    1ACE    CH3    2  11.474  13.418  12.457 -0.9481  0.0483 -0.2739
    1ACE   HH32    3  11.533  13.477  12.387 -0.7005  1.4833  1.0702
    1ACE   HH33    4  11.378  13.400  12.409  0.3841 -3.0772 -2.0740
    1ACE      C    5  11.530  13.282  12.472  0.1654  0.7918 -0.1921
    1ACE      O    6  11.547  13.212  12.370 -0.1995 -0.2473 -0.7707
    2ALA      N    7  11.541  13.239  12.597 -0.1892 -0.6306  0.2126
    2ALA      H    8  11.510  13.306  12.666  0.2562  0.0084 -0.2069
    2ALA     CA    9  11.586  13.109  12.661 -0.2131 -0.5046 -0.0047
    2ALA     HA   10  11.625  13.136  12.759  0.8580  0.0393 -0.5433
    2ALA     CB   11  11.451  13.041  12.686  0.1539 -0.3459 -0.1003
    2ALA    HB1   12  11.391  13.026  12.596  0.7622 -0.3226 -0.5137
    2ALA    HB2   13  11.465  12.945  12.736  1.5870 -0.3399 -0.4528
    2ALA    HB3   14  11.397  13.099  12.761  0.9295  0.1800  0.0412
    2ALA      C   15  11.679  13.011  12.590  0.6281  0.2730  0.5227
    2ALA      O   16  11.712  12.911  12.646 -0.5389 -0.0848 -0.5887
    3ALA      N   17  11.725  13.037  12.464 -0.0844 -0.5039  0.2958
    3ALA      H   18  11.699  13.129  12.430 -0.0552 -0.1941  1.0918
    3ALA     CA   19  11.820  12.954  12.393 -0.0765  0.1884  0.0362
    3ALA     HA   20  11.892  12.925  12.469 -0.0713  0.5095  0.1546
    3ALA     CB   21  11.745  12.827  12.343 -0.1071 -0.5177  0.5597
    3ALA    HB1   22  11.806  12.755  12.288 -0.4622  0.7692 -1.6083
    3ALA    HB2   23  11.702  12.769  12.425 -0.4306 -1.2603 -0.1118
    3ALA    HB3   24  11.657  12.857  12.287 -0.5319  1.8561  2.3562
    3ALA      C   25  11.894  13.011  12.269  0.2861  0.3413  0.0894
    3ALA      O   26  12.003  12.971  12.244  0.3813  0.8099  0.1494
    4NME      N   27  11.820  13.104  12.193  0.3444  0.6002  0.2487
    4NME      H   28  11.728  13.118  12.230  0.7464 -1.0641  2.0463
    4NME    CH3   29  11.872  13.193  12.089 -0.6405  0.3283  0.1116
    4NME   HH31   30  11.920  13.276  12.140 -0.9193 -0.7524  2.2883
    4NME   HH32   31  11.942  13.142  12.023  1.8528  2.6537  0.7607
    4NME   HH33   32  11.783  13.229  12.036 -0.2263  0.1144 -0.7284
  20.99041  20.99041  20.99041
