Protein
   42
    1ACE   HH31    1   1.567  16.710   5.261  0.1264  0.8175 -0.7001
    1ACE    CH3    2   1.595  16.738   5.362  0.0137 -0.2689 -0.3555
    1ACE   HH32    3   1.507  16.750   5.425 -0.9937  0.1232 -1.7949
    1ACE   HH33    4   1.646  16.833   5.345  0.1818 -0.3999 -0.5993
    1ACE      C    5   1.694  16.646   5.445  0.0673  0.4767 -0.4569
    1ACE      O    6   1.805  16.680   5.476  0.4453  0.1076  0.0941
    2ALA      N    7   1.653  16.519   5.456 -1.0610 -0.7487 -0.1098
    2ALA      H    8   1.576  16.492   5.396 -1.1873  0.7120 -0.6452
    2ALA     CA    9   1.732  16.403   5.510  0.3877  0.1354 -0.2273
    2ALA     HA   10   1.781  16.440   5.601  2.1983  0.3482 -1.2380
    2ALA     CB   11   1.629  16.293   5.553 -0.4003 -1.0686  0.0091
    2ALA    HB1   12   1.592  16.252   5.459 -0.0645 -0.7420 -0.2695
    2ALA    HB2   13   1.672  16.212   5.612  2.2875 -0.1290 -0.5052
    2ALA    HB3   14   1.550  16.339   5.613 -0.5857 -0.7732 -0.4629
    2ALA      C   15   1.837  16.365   5.411  0.1886 -0.2660  0.1343
    2ALA      O   16   1.817  16.261   5.345 -0.1600 -0.5701  0.0569
    3ALA      N   17   1.946  16.442   5.407  0.8563  0.1438  0.6773
    3ALA      H   18   1.948  16.527   5.461 -1.0822  1.2177 -0.8050
    3ALA     CA   19   2.036  16.435   5.297  0.0097  0.0796  0.5008
    3ALA     HA   20   1.988  16.367   5.227 -2.3130  2.7068 -0.6653
    3ALA     CB   21   2.039  16.571   5.229 -0.4303  0.1049 -0.3433
    3ALA    HB1   22   2.073  16.573   5.125  3.0307  0.3540  0.6620
    3ALA    HB2   23   1.941  16.619   5.235 -0.4340 -0.0119  0.6572
    3ALA    HB3   24   2.105  16.644   5.276 -1.8098  1.3338 -0.2354
    3ALA      C   25   2.185  16.384   5.316  0.2095 -0.0722 -1.0732
    3ALA      O   26   2.262  16.377   5.221 -0.1525  0.0627  0.4053
    4ALA      N   27   2.214  16.361   5.449 -0.9433 -0.0065  0.5162
    4ALA      H   28   2.141  16.385   5.514 -1.2501  1.5272 -0.3391
    4ALA     CA   29   2.351  16.318   5.490  0.7235 -0.2248  0.1279
    4ALA     HA   30   2.423  16.320   5.409  0.1512 -0.9186 -0.4215
    4ALA     CB   31   2.406  16.420   5.591  0.3262  0.2188 -0.4995
    4ALA    HB1   32   2.414  16.515   5.539 -0.7159  0.7520  0.2888
    4ALA    HB2   33   2.342  16.416   5.679  1.3827  0.3055  0.2867
    4ALA    HB3   34   2.502  16.375   5.618 -1.4385 -2.8469  1.2240
    4ALA      C   35   2.348  16.169   5.528  0.7392  0.0466 -0.0380
    4ALA      O   36   2.376  16.134   5.638 -0.0720  0.0831  0.3936
    5NME      N   37   2.284  16.081   5.449 -0.2593  0.5564 -0.3356
    5NME      H   38   2.246  16.110   5.360 -0.8046  0.8001 -0.0345
    5NME    CH3   39   2.251  15.938   5.488 -0.1066 -0.2108 -0.2732
    5NME   HH31   40   2.344  15.881   5.477  0.4361  0.8385 -1.3890
    5NME   HH32   41   2.217  15.934   5.591  0.7166 -1.2032 -0.0110
    5NME   HH33   42   2.170  15.907   5.422 -0.0751 -0.4215 -0.2214
  20.91516  20.91516  20.91516
