Protein
   42
    1ACE   HH31    1  15.100   9.107   6.808 -2.4011 -0.1936  0.7983
    1ACE    CH3    2  15.082   9.206   6.767 -0.1196  0.2564  0.7812
    1ACE   HH32    3  14.980   9.239   6.784  0.1610  0.4884  2.1169
    1ACE   HH33    4  15.100   9.205   6.660 -1.5907 -0.3564  0.5234
    1ACE      C    5  15.166   9.313   6.832  0.3975  0.9393  0.0354
    1ACE      O    6  15.116   9.397   6.901  0.4590  0.6540 -0.5979
    2ALA      N    7  15.295   9.316   6.808 -0.7339 -0.1178 -0.6709
    2ALA      H    8  15.327   9.238   6.752  1.4774 -1.2421  1.9291
    2ALA     CA    9  15.394   9.426   6.821  0.0763 -0.2727  0.4266
    2ALA     HA   10  15.490   9.401   6.775  0.0273 -0.9462  0.6813
    2ALA     CB   11  15.341   9.550   6.749  0.9900  0.2448 -0.0718
    2ALA    HB1   12  15.418   9.627   6.751  0.8786  0.4818 -2.3805
    2ALA    HB2   13  15.315   9.525   6.646  2.5573  0.5580 -0.5914
    2ALA    HB3   14  15.256   9.585   6.806  0.1293  3.0299 -2.7690
    2ALA      C   15  15.434   9.445   6.973 -0.8463 -0.0446  0.3163
    2ALA      O   16  15.530   9.509   7.004  0.0222  0.0574 -0.1242
    3ALA      N   17  15.356   9.390   7.071  0.6580  0.3095 -1.2717
    3ALA      H   18  15.273   9.343   7.036  0.9158 -0.9603 -0.2750
    3ALA     CA   19  15.343   9.408   7.216 -0.2296 -0.0101  0.5986
    3ALA     HA   20  15.425   9.351   7.260 -0.5859  0.2979  1.7068
    3ALA     CB   21  15.367   9.556   7.247 -0.3942 -0.7075  0.4607
    3ALA    HB1   22  15.470   9.585   7.225 -0.6424 -0.5705 -0.5708
    3ALA    HB2   23  15.284   9.612   7.203 -0.6766 -1.3468  0.1741
    3ALA    HB3   24  15.361   9.575   7.354 -1.2689 -0.1957  0.3364
    3ALA      C   25  15.203   9.367   7.279  0.2895 -0.3958  0.2641
    3ALA      O   26  15.196   9.342   7.396 -0.0766 -0.1986  0.3383
    4ALA      N   27  15.094   9.377   7.194 -0.2569  0.0409 -0.0226
    4ALA      H   28  15.121   9.409   7.102 -0.1162  1.1869  0.4047
    4ALA     CA   29  14.947   9.349   7.204  0.7202 -0.6296  0.2634
    4ALA     HA   30  14.908   9.434   7.147  0.0155 -1.3296 -0.3146
    4ALA     CB   31  14.912   9.214   7.138  0.1186 -0.0043 -0.3764
    4ALA    HB1   32  14.974   9.141   7.189 -1.5136 -1.6048 -0.5971
    4ALA    HB2   33  14.810   9.183   7.160  0.7644 -2.1224 -0.1531
    4ALA    HB3   34  14.934   9.226   7.031 -0.6204  0.0319 -0.5293
    4ALA      C   35  14.883   9.371   7.340  0.1198  0.1757 -0.4933
    4ALA      O   36  14.783   9.447   7.346  0.5009  0.6026  0.1870
    5NME      N   37  14.928   9.310   7.450 -0.1577  0.0299 -0.1178
    5NME      H   38  15.011   9.252   7.444  1.1502  1.7417  0.4323
    5NME    CH3   39  14.886   9.339   7.586 -0.0730  0.2634 -0.4589
    5NME   HH31   40  14.818   9.424   7.582 -0.1352  0.2201 -0.3470
    5NME   HH32   41  14.814   9.278   7.641 -0.3574 -0.4608 -1.5998
    5NME   HH33   42  14.975   9.356   7.646  0.1468 -2.0955 -0.0215
  20.91516  20.91516  20.91516
