Protein
   42
    1ACE   HH31    1  16.506  12.615  13.372  0.0740 -1.8146 -0.0290
    1ACE    CH3    2  16.603  12.645  13.412 -0.2034 -0.5015 -0.2757
    1ACE   HH32    3  16.634  12.737  13.361 -0.5792 -1.3158 -2.0486
    1ACE   HH33    4  16.677  12.569  13.388  0.4759 -0.5754  1.8903
    1ACE      C    5  16.603  12.679  13.562  0.3871 -0.5963  0.7306
    1ACE      O    6  16.669  12.770  13.602 -0.3409 -0.2884 -0.7436
    2ALA      N    7  16.527  12.604  13.639  0.3337  0.4194  0.5805
    2ALA      H    8  16.467  12.539  13.590  0.2993  1.0266 -0.1993
    2ALA     CA    9  16.495  12.617  13.783 -0.0676  0.5271 -0.3991
    2ALA     HA   10  16.551  12.701  13.824 -1.0707  1.6975 -1.3253
    2ALA     CB   11  16.344  12.660  13.792 -0.7131 -0.0958 -0.3703
    2ALA    HB1   12  16.315  12.638  13.894  0.3644  1.6866  0.3632
    2ALA    HB2   13  16.338  12.769  13.779  1.2348 -0.1192 -1.7885
    2ALA    HB3   14  16.274  12.598  13.735 -1.0196 -0.4166  0.3469
    2ALA      C   15  16.528  12.487  13.869  0.6136 -0.5961 -0.5201
    2ALA      O   16  16.446  12.454  13.957  0.1009 -0.0495 -0.1542
    3ALA      N   17  16.637  12.415  13.841 -0.4041 -0.0702  0.2502
    3ALA      H   18  16.655  12.332  13.894 -1.1264 -0.7404 -0.5285
    3ALA     CA   19  16.749  12.445  13.755  0.6518  0.1724 -0.2037
    3ALA     HA   20  16.761  12.553  13.740 -2.4399  0.5499 -0.6924
    3ALA     CB   21  16.881  12.382  13.815  0.1609 -0.0244  0.4640
    3ALA    HB1   22  16.902  12.449  13.898  0.5471  0.0533  0.3141
    3ALA    HB2   23  16.874  12.278  13.847 -1.3444 -0.1545 -0.1810
    3ALA    HB3   24  16.972  12.395  13.756 -1.3281 -0.6122 -2.1087
    3ALA      C   25  16.735  12.385  13.617  0.2332  0.2310  0.8109
    3ALA      O   26  16.636  12.322  13.583  0.2000  0.6151  0.7400
    4ALA      N   27  16.838  12.406  13.534  0.4593 -0.8015  0.1089
    4ALA      H   28  16.920  12.452  13.571  0.2548 -1.1660  1.0658
    4ALA     CA   29  16.856  12.324  13.413  0.2898  0.2780  0.3331
    4ALA     HA   30  16.759  12.319  13.363  0.7058  1.1355 -0.6040
    4ALA     CB   31  16.962  12.389  13.320  0.0925 -0.1729  0.2267
    4ALA    HB1   32  16.935  12.494  13.307 -1.0749 -0.6500 -1.7393
    4ALA    HB2   33  17.062  12.376  13.362 -0.1379 -0.7103  0.6152
    4ALA    HB3   34  16.964  12.333  13.227  0.3335 -1.0861  0.7730
    4ALA      C   35  16.898  12.184  13.461  0.8558 -0.2065 -0.2736
    4ALA      O   36  16.977  12.177  13.561  0.0300 -0.1801 -0.2133
    5NME      N   37  16.845  12.079  13.396  0.0809  0.3575  0.2324
    5NME      H   38  16.779  12.094  13.321 -0.4875  1.4385  0.9234
    5NME    CH3   39  16.883  11.939  13.420 -0.2518 -0.3469  0.1477
    5NME   HH31   40  16.991  11.935  13.437 -0.1837  0.7077  0.0416
    5NME   HH32   41  16.824  11.892  13.498 -0.4724  0.9856  0.8115
    5NME   HH33   42  16.875  11.881  13.329 -2.2394  0.0545  0.0191
  20.91516  20.91516  20.91516
