;
;	File 'topol.top' was generated
;	By user: nstrand (325617495)
;	On host: midway3-login3.rcc.local
;	At date: Thu Oct 17 13:15:04 2024
;
;	This is a standalone topology file
;
;	Created by:
;	           :-) GROMACS - gmx pdb2gmx, 2024.2-plumed_2.10.0_dev (-:
;	
;	Executable:   /home/nstrand/gromacs-2024.2/build/bin/gmx_mpi
;	Data prefix:  /home/nstrand/gromacs-2024.2 (source tree)
;	Working dir:  /project/dinner/nstrand/ACA-MTD/trp3_mw_20_20
;	Command line:
;	  gmx_mpi pdb2gmx -f trp3.pdb -o trp3.gro
;	Force field was read from the standard GROMACS share directory.
;

; Include forcefield parameters
#include "amber99sb-ildn.ff/forcefield.itp"

[ moleculetype ]
; Name            nrexcl
Protein             3

[ atoms ]
;   nr       type  resnr residue  atom   cgnr     charge       mass  typeB    chargeB      massB
; residue   1 ACE rtp ACE  q  0.0
     1         HC      1    ACE   HH31      1     0.1123      1.008
     2         CT      1    ACE    CH3      2    -0.3662      12.01
     3         HC      1    ACE   HH32      3     0.1123      1.008
     4         HC      1    ACE   HH33      4     0.1123      1.008
     5          C      1    ACE      C      5     0.5972      12.01
     6          O      1    ACE      O      6    -0.5679         16   ; qtot 0
; residue   2 TRP rtp TRP  q  0.0
     7          N      2    TRP      N      7    -0.4157      14.01
     8          H      2    TRP      H      8     0.2719      1.008
     9         CT      2    TRP     CA      9    -0.0275      12.01
    10         H1      2    TRP     HA     10     0.1123      1.008
    11         CT      2    TRP     CB     11     -0.005      12.01
    12         HC      2    TRP    HB1     12     0.0339      1.008
    13         HC      2    TRP    HB2     13     0.0339      1.008
    14         C*      2    TRP     CG     14    -0.1415      12.01
    15         CW      2    TRP    CD1     15    -0.1638      12.01
    16         H4      2    TRP    HD1     16     0.2062      1.008
    17         NA      2    TRP    NE1     17    -0.3418      14.01
    18          H      2    TRP    HE1     18     0.3412      1.008
    19         CN      2    TRP    CE2     19      0.138      12.01
    20         CA      2    TRP    CZ2     20    -0.2601      12.01
    21         HA      2    TRP    HZ2     21     0.1572      1.008
    22         CA      2    TRP    CH2     22    -0.1134      12.01
    23         HA      2    TRP    HH2     23     0.1417      1.008
    24         CA      2    TRP    CZ3     24    -0.1972      12.01
    25         HA      2    TRP    HZ3     25     0.1447      1.008
    26         CA      2    TRP    CE3     26    -0.2387      12.01
    27         HA      2    TRP    HE3     27       0.17      1.008
    28         CB      2    TRP    CD2     28     0.1243      12.01
    29          C      2    TRP      C     29     0.5973      12.01
    30          O      2    TRP      O     30    -0.5679         16   ; qtot 0
; residue   3 TRP rtp TRP  q  0.0
    31          N      3    TRP      N     31    -0.4157      14.01
    32          H      3    TRP      H     32     0.2719      1.008
    33         CT      3    TRP     CA     33    -0.0275      12.01
    34         H1      3    TRP     HA     34     0.1123      1.008
    35         CT      3    TRP     CB     35     -0.005      12.01
    36         HC      3    TRP    HB1     36     0.0339      1.008
    37         HC      3    TRP    HB2     37     0.0339      1.008
    38         C*      3    TRP     CG     38    -0.1415      12.01
    39         CW      3    TRP    CD1     39    -0.1638      12.01
    40         H4      3    TRP    HD1     40     0.2062      1.008
    41         NA      3    TRP    NE1     41    -0.3418      14.01
    42          H      3    TRP    HE1     42     0.3412      1.008
    43         CN      3    TRP    CE2     43      0.138      12.01
    44         CA      3    TRP    CZ2     44    -0.2601      12.01
    45         HA      3    TRP    HZ2     45     0.1572      1.008
    46         CA      3    TRP    CH2     46    -0.1134      12.01
    47         HA      3    TRP    HH2     47     0.1417      1.008
    48         CA      3    TRP    CZ3     48    -0.1972      12.01
    49         HA      3    TRP    HZ3     49     0.1447      1.008
    50         CA      3    TRP    CE3     50    -0.2387      12.01
    51         HA      3    TRP    HE3     51       0.17      1.008
    52         CB      3    TRP    CD2     52     0.1243      12.01
    53          C      3    TRP      C     53     0.5973      12.01
    54          O      3    TRP      O     54    -0.5679         16   ; qtot 0
; residue   4 NME rtp NME  q  0.0
    55          N      4    NME      N     55    -0.4157      14.01
    56          H      4    NME      H     56     0.2719      1.008
    57         CT      4    NME    CH3     57     -0.149      12.01
    58         H1      4    NME   HH31     58     0.0976      1.008
    59         H1      4    NME   HH32     59     0.0976      1.008
    60         H1      4    NME   HH33     60     0.0976      1.008   ; qtot 0

[ bonds ]
;  ai    aj funct            c0            c1            c2            c3
    1     2     1 
    2     3     1 
    2     4     1 
    2     5     1 
    5     6     1 
    5     7     1 
    7     8     1 
    7     9     1 
    9    10     1 
    9    11     1 
    9    29     1 
   11    12     1 
   11    13     1 
   11    14     1 
   14    15     1 
   14    28     1 
   15    16     1 
   15    17     1 
   17    18     1 
   17    19     1 
   19    20     1 
   19    28     1 
   20    21     1 
   20    22     1 
   22    23     1 
   22    24     1 
   24    25     1 
   24    26     1 
   26    27     1 
   26    28     1 
   29    30     1 
   29    31     1 
   31    32     1 
   31    33     1 
   33    34     1 
   33    35     1 
   33    53     1 
   35    36     1 
   35    37     1 
   35    38     1 
   38    39     1 
   38    52     1 
   39    40     1 
   39    41     1 
   41    42     1 
   41    43     1 
   43    44     1 
   43    52     1 
   44    45     1 
   44    46     1 
   46    47     1 
   46    48     1 
   48    49     1 
   48    50     1 
   50    51     1 
   50    52     1 
   53    54     1 
   53    55     1 
   55    56     1 
   55    57     1 
   57    58     1 
   57    59     1 
   57    60     1 

[ pairs ]
;  ai    aj funct            c0            c1            c2            c3
    1     6     1 
    1     7     1 
    2     8     1 
    2     9     1 
    3     6     1 
    3     7     1 
    4     6     1 
    4     7     1 
    5    10     1 
    5    11     1 
    5    29     1 
    6     8     1 
    6     9     1 
    7    12     1 
    7    13     1 
    7    14     1 
    7    30     1 
    7    31     1 
    8    10     1 
    8    11     1 
    8    29     1 
    9    15     1 
    9    28     1 
    9    32     1 
    9    33     1 
   10    12     1 
   10    13     1 
   10    14     1 
   10    30     1 
   10    31     1 
   11    16     1 
   11    17     1 
   11    19     1 
   11    26     1 
   11    30     1 
   11    31     1 
   12    15     1 
   12    28     1 
   12    29     1 
   13    15     1 
   13    28     1 
   13    29     1 
   14    18     1 
   14    20     1 
   14    24     1 
   14    27     1 
   14    29     1 
   15    20     1 
   15    26     1 
   16    18     1 
   16    19     1 
   16    28     1 
   17    21     1 
   17    22     1 
   17    26     1 
   18    20     1 
   18    28     1 
   19    23     1 
   19    24     1 
   19    27     1 
   20    25     1 
   20    26     1 
   21    23     1 
   21    24     1 
   21    28     1 
   22    27     1 
   22    28     1 
   23    25     1 
   23    26     1 
   25    27     1 
   25    28     1 
   29    34     1 
   29    35     1 
   29    53     1 
   30    32     1 
   30    33     1 
   31    36     1 
   31    37     1 
   31    38     1 
   31    54     1 
   31    55     1 
   32    34     1 
   32    35     1 
   32    53     1 
   33    39     1 
   33    52     1 
   33    56     1 
   33    57     1 
   34    36     1 
   34    37     1 
   34    38     1 
   34    54     1 
   34    55     1 
   35    40     1 
   35    41     1 
   35    43     1 
   35    50     1 
   35    54     1 
   35    55     1 
   36    39     1 
   36    52     1 
   36    53     1 
   37    39     1 
   37    52     1 
   37    53     1 
   38    42     1 
   38    44     1 
   38    48     1 
   38    51     1 
   38    53     1 
   39    44     1 
   39    50     1 
   40    42     1 
   40    43     1 
   40    52     1 
   41    45     1 
   41    46     1 
   41    50     1 
   42    44     1 
   42    52     1 
   43    47     1 
   43    48     1 
   43    51     1 
   44    49     1 
   44    50     1 
   45    47     1 
   45    48     1 
   45    52     1 
   46    51     1 
   46    52     1 
   47    49     1 
   47    50     1 
   49    51     1 
   49    52     1 
   53    58     1 
   53    59     1 
   53    60     1 
   54    56     1 
   54    57     1 
   56    58     1 
   56    59     1 
   56    60     1 

[ angles ]
;  ai    aj    ak funct            c0            c1            c2            c3
    1     2     3     1 
    1     2     4     1 
    1     2     5     1 
    3     2     4     1 
    3     2     5     1 
    4     2     5     1 
    2     5     6     1 
    2     5     7     1 
    6     5     7     1 
    5     7     8     1 
    5     7     9     1 
    8     7     9     1 
    7     9    10     1 
    7     9    11     1 
    7     9    29     1 
   10     9    11     1 
   10     9    29     1 
   11     9    29     1 
    9    11    12     1 
    9    11    13     1 
    9    11    14     1 
   12    11    13     1 
   12    11    14     1 
   13    11    14     1 
   11    14    15     1 
   11    14    28     1 
   15    14    28     1 
   14    15    16     1 
   14    15    17     1 
   16    15    17     1 
   15    17    18     1 
   15    17    19     1 
   18    17    19     1 
   17    19    20     1 
   17    19    28     1 
   20    19    28     1 
   19    20    21     1 
   19    20    22     1 
   21    20    22     1 
   20    22    23     1 
   20    22    24     1 
   23    22    24     1 
   22    24    25     1 
   22    24    26     1 
   25    24    26     1 
   24    26    27     1 
   24    26    28     1 
   27    26    28     1 
   14    28    19     1 
   14    28    26     1 
   19    28    26     1 
    9    29    30     1 
    9    29    31     1 
   30    29    31     1 
   29    31    32     1 
   29    31    33     1 
   32    31    33     1 
   31    33    34     1 
   31    33    35     1 
   31    33    53     1 
   34    33    35     1 
   34    33    53     1 
   35    33    53     1 
   33    35    36     1 
   33    35    37     1 
   33    35    38     1 
   36    35    37     1 
   36    35    38     1 
   37    35    38     1 
   35    38    39     1 
   35    38    52     1 
   39    38    52     1 
   38    39    40     1 
   38    39    41     1 
   40    39    41     1 
   39    41    42     1 
   39    41    43     1 
   42    41    43     1 
   41    43    44     1 
   41    43    52     1 
   44    43    52     1 
   43    44    45     1 
   43    44    46     1 
   45    44    46     1 
   44    46    47     1 
   44    46    48     1 
   47    46    48     1 
   46    48    49     1 
   46    48    50     1 
   49    48    50     1 
   48    50    51     1 
   48    50    52     1 
   51    50    52     1 
   38    52    43     1 
   38    52    50     1 
   43    52    50     1 
   33    53    54     1 
   33    53    55     1 
   54    53    55     1 
   53    55    56     1 
   53    55    57     1 
   56    55    57     1 
   55    57    58     1 
   55    57    59     1 
   55    57    60     1 
   58    57    59     1 
   58    57    60     1 
   59    57    60     1 

[ dihedrals ]
;  ai    aj    ak    al funct            c0            c1            c2            c3            c4            c5
    1     2     5     6     9 
    1     2     5     7     9 
    3     2     5     6     9 
    3     2     5     7     9 
    4     2     5     6     9 
    4     2     5     7     9 
    2     5     7     8     9 
    2     5     7     9     9 
    6     5     7     8     9 
    6     5     7     9     9 
    5     7     9    10     9 
    5     7     9    11     9 
    5     7     9    29     9 
    8     7     9    10     9 
    8     7     9    11     9 
    8     7     9    29     9 
    7     9    11    12     9 
    7     9    11    13     9 
    7     9    11    14     9 
   10     9    11    12     9 
   10     9    11    13     9 
   10     9    11    14     9 
   29     9    11    12     9 
   29     9    11    13     9 
   29     9    11    14     9 
    7     9    29    30     9 
    7     9    29    31     9 
   10     9    29    30     9 
   10     9    29    31     9 
   11     9    29    30     9 
   11     9    29    31     9 
    9    11    14    15     9 
    9    11    14    28     9 
   12    11    14    15     9 
   12    11    14    28     9 
   13    11    14    15     9 
   13    11    14    28     9 
   11    14    15    16     9 
   11    14    15    17     9 
   28    14    15    16     9 
   28    14    15    17     9 
   11    14    28    19     9 
   11    14    28    26     9 
   15    14    28    19     9 
   15    14    28    26     9 
   14    15    17    18     9 
   14    15    17    19     9 
   16    15    17    18     9 
   16    15    17    19     9 
   15    17    19    20     9 
   15    17    19    28     9 
   18    17    19    20     9 
   18    17    19    28     9 
   17    19    20    21     9 
   17    19    20    22     9 
   28    19    20    21     9 
   28    19    20    22     9 
   17    19    28    14     9 
   17    19    28    26     9 
   20    19    28    14     9 
   20    19    28    26     9 
   19    20    22    23     9 
   19    20    22    24     9 
   21    20    22    23     9 
   21    20    22    24     9 
   20    22    24    25     9 
   20    22    24    26     9 
   23    22    24    25     9 
   23    22    24    26     9 
   22    24    26    27     9 
   22    24    26    28     9 
   25    24    26    27     9 
   25    24    26    28     9 
   24    26    28    14     9 
   24    26    28    19     9 
   27    26    28    14     9 
   27    26    28    19     9 
    9    29    31    32     9 
    9    29    31    33     9 
   30    29    31    32     9 
   30    29    31    33     9 
   29    31    33    34     9 
   29    31    33    35     9 
   29    31    33    53     9 
   32    31    33    34     9 
   32    31    33    35     9 
   32    31    33    53     9 
   31    33    35    36     9 
   31    33    35    37     9 
   31    33    35    38     9 
   34    33    35    36     9 
   34    33    35    37     9 
   34    33    35    38     9 
   53    33    35    36     9 
   53    33    35    37     9 
   53    33    35    38     9 
   31    33    53    54     9 
   31    33    53    55     9 
   34    33    53    54     9 
   34    33    53    55     9 
   35    33    53    54     9 
   35    33    53    55     9 
   33    35    38    39     9 
   33    35    38    52     9 
   36    35    38    39     9 
   36    35    38    52     9 
   37    35    38    39     9 
   37    35    38    52     9 
   35    38    39    40     9 
   35    38    39    41     9 
   52    38    39    40     9 
   52    38    39    41     9 
   35    38    52    43     9 
   35    38    52    50     9 
   39    38    52    43     9 
   39    38    52    50     9 
   38    39    41    42     9 
   38    39    41    43     9 
   40    39    41    42     9 
   40    39    41    43     9 
   39    41    43    44     9 
   39    41    43    52     9 
   42    41    43    44     9 
   42    41    43    52     9 
   41    43    44    45     9 
   41    43    44    46     9 
   52    43    44    45     9 
   52    43    44    46     9 
   41    43    52    38     9 
   41    43    52    50     9 
   44    43    52    38     9 
   44    43    52    50     9 
   43    44    46    47     9 
   43    44    46    48     9 
   45    44    46    47     9 
   45    44    46    48     9 
   44    46    48    49     9 
   44    46    48    50     9 
   47    46    48    49     9 
   47    46    48    50     9 
   46    48    50    51     9 
   46    48    50    52     9 
   49    48    50    51     9 
   49    48    50    52     9 
   48    50    52    38     9 
   48    50    52    43     9 
   51    50    52    38     9 
   51    50    52    43     9 
   33    53    55    56     9 
   33    53    55    57     9 
   54    53    55    56     9 
   54    53    55    57     9 
   53    55    57    58     9 
   53    55    57    59     9 
   53    55    57    60     9 
   56    55    57    58     9 
   56    55    57    59     9 
   56    55    57    60     9 

[ dihedrals ]
;  ai    aj    ak    al funct            c0            c1            c2            c3
    2     7     5     6     4 
    5     9     7     8     4 
    9    31    29    30     4 
   14    17    15    16     4 
   15    19    17    18     4 
   15    14    11    28     4 
   19    22    20    21     4 
   20    24    22    23     4 
   22    26    24    25     4 
   24    28    26    27     4 
   29    33    31    32     4 
   33    55    53    54     4 
   38    41    39    40     4 
   39    43    41    42     4 
   39    38    35    52     4 
   43    46    44    45     4 
   44    48    46    47     4 
   46    50    48    49     4 
   48    52    50    51     4 
   53    57    55    56     4 

; Include Position restraint file
#ifdef POSRES
#include "posre.itp"
#endif

[ system ]
; Name
Protein

[ molecules ]
; Compound        #mols
Protein             1
