Protein
   32
    1ACE   HH31    1   9.446  10.696  11.504  1.1699 -0.0706  0.2030
    1ACE    CH3    2   9.492  10.676  11.601  0.6256  0.0801  0.4982
    1ACE   HH32    3   9.476  10.749  11.680 -1.9944 -0.3235  0.4164
    1ACE   HH33    4   9.601  10.676  11.589  0.5521 -1.0631 -0.3005
    1ACE      C    5   9.468  10.534  11.641  0.7184 -0.2825  0.0391
    1ACE      O    6   9.561  10.465  11.680 -0.0338  0.1530 -0.7800
    2ALA      N    7   9.343  10.493  11.631 -0.0996  0.3146 -0.5471
    2ALA      H    8   9.278  10.562  11.597  0.2848  1.7278  1.4226
    2ALA     CA    9   9.299  10.353  11.630 -0.7224 -0.4314  0.1810
    2ALA     HA   10   9.372  10.288  11.677 -1.6500 -1.0791  0.7744
    2ALA     CB   11   9.170  10.346  11.718  0.5872  0.1016 -0.0849
    2ALA    HB1   12   9.088  10.398  11.668  0.4063  0.2140  0.3137
    2ALA    HB2   13   9.146  10.241  11.734  2.1083 -0.1346  0.8912
    2ALA    HB3   14   9.187  10.402  11.810 -1.4417  1.7100 -0.5884
    2ALA      C   15   9.271  10.314  11.480 -0.7576  0.2487  1.2593
    2ALA      O   16   9.247  10.398  11.392  0.0065  0.0289 -0.4362
    3ALA      N   17   9.284  10.184  11.456  0.2177  0.0559  0.1970
    3ALA      H   18   9.284  10.125  11.538 -2.4471  0.4229  0.5682
    3ALA     CA   19   9.271  10.128  11.327 -0.2095 -0.5957  0.6365
    3ALA     HA   20   9.337  10.182  11.260 -0.8451 -1.6151 -0.8584
    3ALA     CB   21   9.314   9.980  11.322 -0.0270  0.3630 -0.7637
    3ALA    HB1   22   9.248   9.917  11.382  1.9355  0.1762  1.3500
    3ALA    HB2   23   9.325   9.946  11.219 -3.0175 -0.6458 -0.8074
    3ALA    HB3   24   9.413   9.972  11.368 -0.5649 -0.8815  0.2273
    3ALA      C   25   9.128  10.144  11.270  0.3610  0.0232  0.0242
    3ALA      O   26   9.036  10.190  11.330 -0.0373  0.8020  0.2767
    4NME      N   27   9.101  10.075  11.158  0.3812 -0.3990 -0.4669
    4NME      H   28   9.186  10.047  11.110  2.2482  1.9805  1.1705
    4NME    CH3   29   8.973  10.074  11.089  0.5122  0.2697 -0.4615
    4NME   HH31   30   8.957  10.167  11.034  1.2600  0.6315 -0.0845
    4NME   HH32   31   8.972  10.002  11.008  0.3551  0.5185 -0.6862
    4NME   HH33   32   8.893  10.049  11.159  0.5714 -1.0100 -0.8377
  20.99041  20.99041  20.99041
