Protein
   42
    1ACE   HH31    1  11.126  11.450  10.142  0.9149  0.5203 -1.7596
    1ACE    CH3    2  11.032  11.429  10.091 -0.2063  0.5086  0.2144
    1ACE   HH32    3  11.034  11.323  10.064 -1.7337  0.6820 -0.6648
    1ACE   HH33    4  11.025  11.492  10.002  0.7008 -1.8181 -1.6088
    1ACE      C    5  10.915  11.468  10.176 -0.0376  1.3073  0.1727
    1ACE      O    6  10.818  11.516  10.119 -0.0324 -0.0419  0.2805
    2ALA      N    7  10.915  11.438  10.305 -0.6282  0.3465  0.3357
    2ALA      H    8  11.002  11.400  10.340 -0.5500 -0.8093 -1.0418
    2ALA     CA    9  10.808  11.453  10.397  0.1617  0.0265  0.7901
    2ALA     HA   10  10.714  11.449  10.342  0.0755  0.0179  0.9372
    2ALA     CB   11  10.795  11.340  10.500  0.0726 -0.0319  0.4829
    2ALA    HB1   12  10.703  11.361  10.555 -0.3843  1.4103 -0.7653
    2ALA    HB2   13  10.796  11.242  10.454  1.8320 -0.7311  1.9122
    2ALA    HB3   14  10.878  11.345  10.571  1.9965  0.8455 -1.6869
    2ALA      C   15  10.819  11.595  10.457  0.3348 -0.6856 -0.3581
    2ALA      O   16  10.926  11.637  10.503 -0.1489  0.9497  0.0999
    3ALA      N   17  10.724  11.686  10.468 -0.5529 -0.5336  0.6253
    3ALA      H   18  10.763  11.773  10.503  0.0877 -0.6079  0.1251
    3ALA     CA   19  10.580  11.676  10.438  0.2831 -0.1448  0.3396
    3ALA     HA   20  10.554  11.676  10.332 -1.3033  0.3146  0.6980
    3ALA     CB   21  10.522  11.548  10.502  0.3166 -0.2703 -1.1091
    3ALA    HB1   22  10.415  11.563  10.521  0.6278 -0.4767  1.0332
    3ALA    HB2   23  10.536  11.466  10.432 -0.1010 -1.2701 -0.0510
    3ALA    HB3   24  10.559  11.531  10.603 -0.4624 -1.6976 -1.0227
    3ALA      C   25  10.500  11.796  10.503  0.1470 -0.0996  0.2550
    3ALA      O   26  10.384  11.817  10.461  0.1668  0.4995 -0.4661
    4ALA      N   27  10.573  11.880  10.578  0.3229  0.0091 -0.3433
    4ALA      H   28  10.652  11.835  10.623 -0.6077 -1.3781 -0.0523
    4ALA     CA   29  10.542  12.021  10.585 -0.0366  0.0459  0.4360
    4ALA     HA   30  10.609  12.063  10.660 -2.4563  2.4325  1.4148
    4ALA     CB   31  10.586  12.097  10.464 -0.3385  0.4306  0.1838
    4ALA    HB1   32  10.568  12.204  10.467 -1.1248  0.2823  1.4859
    4ALA    HB2   33  10.692  12.084  10.444 -0.5922  1.2102 -2.0180
    4ALA    HB3   34  10.537  12.063  10.372 -2.1680  1.3973  0.7585
    4ALA      C   35  10.414  12.074  10.654  0.0334 -0.1002  0.0091
    4ALA      O   36  10.426  12.160  10.744 -0.4799  0.2142  0.3126
    5NME      N   37  10.297  12.027  10.617  0.1756  0.3615  0.4179
    5NME      H   38  10.304  11.951  10.550  1.1623  1.1908 -0.4865
    5NME    CH3   39  10.163  12.065  10.667  0.1214 -0.0502  0.0471
    5NME   HH31   40  10.129  12.157  10.620 -0.3527  0.8507  2.0421
    5NME   HH32   41  10.090  11.988  10.645  0.2146  0.5627 -2.7457
    5NME   HH33   42  10.180  12.081  10.774  2.2522  1.1956 -0.4143
  20.91516  20.91516  20.91516
