Protein
   42
    1ACE   HH31    1  10.516  13.425  12.040 -0.8459 -0.1946  1.7945
    1ACE    CH3    2  10.609  13.397  12.087 -0.1644 -0.7234  0.2356
    1ACE   HH32    3  10.647  13.304  12.043  0.3051 -0.5671  0.3052
    1ACE   HH33    4  10.590  13.370  12.191  1.1774  0.4136  0.8148
    1ACE      C    5  10.706  13.510  12.073  0.6968 -0.3980  1.0520
    1ACE      O    6  10.802  13.497  11.997 -0.4106 -0.9516  0.0027
    2ALA      N    7  10.683  13.626  12.143 -0.2736 -0.1926  0.3374
    2ALA      H    8  10.598  13.634  12.197 -0.5458  1.7894 -0.2956
    2ALA     CA    9  10.787  13.726  12.157  0.0142 -0.4641  0.5268
    2ALA     HA   10  10.881  13.688  12.117 -0.6649 -0.1287 -1.5048
    2ALA     CB   11  10.743  13.845  12.065  0.1276  0.2710 -0.0371
    2ALA    HB1   12  10.713  13.804  11.968  0.0585 -1.0223  0.5052
    2ALA    HB2   13  10.661  13.904  12.107 -0.4133 -0.4933  0.0231
    2ALA    HB3   14  10.829  13.908  12.047  1.1732 -1.2870 -0.6654
    2ALA      C   15  10.807  13.781  12.302  0.1737 -0.3830 -0.6510
    2ALA      O   16  10.710  13.772  12.378 -0.1918 -0.8024 -0.6621
    3ALA      N   17  10.916  13.844  12.338  0.0562 -0.2919 -0.5488
    3ALA      H   18  10.916  13.884  12.430  0.0540  0.0004 -0.6751
    3ALA     CA   19  11.038  13.884  12.265  0.0473 -0.3402  0.0169
    3ALA     HA   20  11.008  13.907  12.162 -2.0729  0.2801  0.7246
    3ALA     CB   21  11.107  13.992  12.344 -0.3625  0.7199  0.4451
    3ALA    HB1   22  11.185  14.041  12.285 -0.5320  0.0458 -0.3437
    3ALA    HB2   23  11.037  14.068  12.377 -1.4207 -0.3517  0.7636
    3ALA    HB3   24  11.155  13.954  12.434 -0.4174  0.1276  0.2230
    3ALA      C   25  11.141  13.778  12.250  0.5760  0.2856 -0.0766
    3ALA      O   26  11.174  13.715  12.349  0.2259 -0.3854 -0.3253
    4ALA      N   27  11.176  13.758  12.128 -0.2012  0.7609 -0.2911
    4ALA      H   28  11.151  13.832  12.063 -1.9791  0.8151  0.3715
    4ALA     CA   29  11.254  13.643  12.086  0.6334 -1.0997  0.5254
    4ALA     HA   30  11.253  13.570  12.167 -1.1275 -2.5886 -0.7687
    4ALA     CB   31  11.180  13.586  11.966 -0.4028  0.7272  0.7119
    4ALA    HB1   32  11.185  13.654  11.881 -1.7743  0.0793  0.0725
    4ALA    HB2   33  11.216  13.486  11.940 -1.8760 -0.1154  1.7529
    4ALA    HB3   34  11.074  13.574  11.987 -0.9625  2.0506 -1.1495
    4ALA      C   35  11.403  13.687  12.053  0.1406 -0.6689  0.4785
    4ALA      O   36  11.422  13.799  12.019  0.4189 -0.0275 -0.0164
    5NME      N   37  11.506  13.602  12.066  0.1248 -0.3686  0.7065
    5NME      H   38  11.476  13.506  12.078 -1.6500 -0.1598 -1.4445
    5NME    CH3   39  11.649  13.638  12.048  0.1890  0.0212 -0.3590
    5NME   HH31   40  11.674  13.732  12.098  1.8630  0.1363 -1.3662
    5NME   HH32   41  11.712  13.559  12.089 -0.9286 -0.2127  1.0108
    5NME   HH33   42  11.656  13.639  11.939  1.1407  1.6409 -0.3106
  20.91516  20.91516  20.91516
