Protein
   42
    1ACE   HH31    1  12.562   0.559   8.890  1.0542  0.0153 -0.7783
    1ACE    CH3    2  12.587   0.515   8.986  0.0533  0.5889 -0.2344
    1ACE   HH32    3  12.508   0.507   9.061  0.1614  0.1762 -0.1620
    1ACE   HH33    4  12.676   0.569   9.020 -0.8432  1.3049  1.0899
    1ACE      C    5  12.614   0.370   8.960  0.0999 -0.0901 -0.0605
    1ACE      O    6  12.526   0.288   8.985  0.1917  0.2173  0.3979
    2ALA      N    7  12.739   0.352   8.917  0.1858  0.2845 -0.3519
    2ALA      H    8  12.810   0.420   8.939 -1.2907  1.4888  0.9092
    2ALA     CA    9  12.787   0.228   8.870  0.6994 -0.4463  0.6325
    2ALA     HA   10  12.700   0.165   8.849 -0.2438  1.1747 -0.5529
    2ALA     CB   11  12.850   0.253   8.734  0.3968 -0.8901  0.1464
    2ALA    HB1   12  12.881   0.156   8.694  3.1691 -0.1245  0.1727
    2ALA    HB2   13  12.773   0.300   8.673 -0.9976  0.6857  2.9110
    2ALA    HB3   14  12.934   0.323   8.744  0.2106 -0.5426 -0.6511
    2ALA      C   15  12.880   0.162   8.965 -0.2672  0.4497  0.3302
    2ALA      O   16  12.988   0.117   8.935  0.4643  0.7978  0.1327
    3ALA      N   17  12.834   0.156   9.091  0.3415 -0.5347  0.1363
    3ALA      H   18  12.741   0.194   9.102 -0.3259 -1.7117 -1.0421
    3ALA     CA   19  12.906   0.145   9.215  0.4755 -0.2299 -0.3515
    3ALA     HA   20  12.840   0.187   9.291  0.7414 -1.5026  0.6100
    3ALA     CB   21  12.938  -0.003   9.251 -0.3893  0.4900  0.8420
    3ALA    HB1   22  12.990  -0.005   9.347  0.0817  0.4115  0.5859
    3ALA    HB2   23  12.845  -0.060   9.261  0.4563 -0.8554  1.3024
    3ALA    HB3   24  12.995  -0.051   9.172  0.3846 -0.3934  1.9105
    3ALA      C   25  13.029   0.239   9.229 -0.5241  0.2772  0.7444
    3ALA      O   26  13.033   0.313   9.326 -0.5059  0.0170  0.0581
    4ALA      N   27  13.128   0.236   9.135  0.5515 -0.1300 -0.6298
    4ALA      H   28  13.119   0.156   9.074 -0.3072  0.2124 -0.9694
    4ALA     CA   29  13.200   0.352   9.086  0.5032  0.1055 -0.1415
    4ALA     HA   30  13.273   0.373   9.164 -0.0547  0.5738  0.2643
    4ALA     CB   31  13.282   0.322   8.957 -0.2678 -0.3917 -0.4118
    4ALA    HB1   32  13.220   0.305   8.869  1.1873  2.3603 -2.0856
    4ALA    HB2   33  13.340   0.408   8.925  0.4016 -1.1210 -1.1804
    4ALA    HB3   34  13.344   0.235   8.979  1.3471  0.8207 -0.0313
    4ALA      C   35  13.108   0.475   9.061  0.4548  0.7226  0.3046
    4ALA      O   36  12.988   0.459   9.040 -0.4581 -0.3013  0.0322
    5NME      N   37  13.165   0.594   9.066  0.6267  0.5099  0.0700
    5NME      H   38  13.257   0.598   9.107  1.0214 -1.0416 -0.5947
    5NME    CH3   39  13.100   0.722   9.047 -0.0319 -0.0849 -0.0251
    5NME   HH31   40  13.031   0.717   8.962  0.5696 -0.9354 -0.4816
    5NME   HH32   41  13.036   0.735   9.134 -0.0036  0.4208 -0.0783
    5NME   HH33   42  13.167   0.807   9.033 -1.6399  1.3285  0.4776
  20.91516  20.91516  20.91516
