Protein
   42
    1ACE   HH31    1   9.047   9.836  11.207 -0.0920 -0.1728  0.5607
    1ACE    CH3    2   9.131   9.853  11.274  0.1434  0.5751  0.0906
    1ACE   HH32    3   9.092   9.832  11.373  1.8571  1.8970  1.0993
    1ACE   HH33    4   9.162   9.958  11.271  0.8989  0.3639 -2.1927
    1ACE      C    5   9.238   9.757  11.236  0.0210  0.0021 -0.5004
    1ACE      O    6   9.206   9.641  11.242  0.8650  0.5518 -0.6521
    2ALA      N    7   9.358   9.803  11.201  0.4960 -0.7534  0.3953
    2ALA      H    8   9.379   9.896  11.235 -0.6167  0.3879 -1.8139
    2ALA     CA    9   9.478   9.730  11.168  0.0298  0.5561  0.1653
    2ALA     HA   10   9.484   9.642  11.232  0.4506 -1.5273 -2.5201
    2ALA     CB   11   9.461   9.694  11.012  0.1766  0.5114 -0.5503
    2ALA    HB1   12   9.361   9.658  10.988  0.1516 -0.1606  0.4762
    2ALA    HB2   13   9.471   9.780  10.946 -1.7945  1.6853  0.5611
    2ALA    HB3   14   9.527   9.617  10.974 -0.4973 -0.2974 -0.1299
    2ALA      C   15   9.601   9.822  11.196 -0.4299  0.6371 -0.2745
    2ALA      O   16   9.593   9.922  11.259 -0.4489 -0.4656  0.2372
    3ALA      N   17   9.729   9.794  11.151  0.0093  0.1403 -0.2941
    3ALA      H   18   9.799   9.864  11.167  0.3362 -0.1163 -0.6001
    3ALA     CA   19   9.788   9.662  11.105  0.7798  0.3863  0.0705
    3ALA     HA   20   9.891   9.674  11.138  0.6327  3.9637 -0.3556
    3ALA     CB   21   9.726   9.542  11.181 -0.5677 -0.0362  0.0508
    3ALA    HB1   22   9.804   9.465  11.178 -2.1397 -1.7774  1.1459
    3ALA    HB2   23   9.702   9.566  11.285  0.1790 -3.1725  1.0652
    3ALA    HB3   24   9.630   9.508  11.141 -0.1334  0.2365 -1.2581
    3ALA      C   25   9.811   9.648  10.954  0.3145  0.0048 -0.0423
    3ALA      O   26   9.789   9.740  10.876  0.2277  0.5335 -0.3101
    4ALA      N   27   9.854   9.528  10.909  0.6914  0.0889  0.6903
    4ALA      H   28   9.862   9.453  10.977  0.1543  0.3298  1.0298
    4ALA     CA   29   9.924   9.486  10.788 -0.5752 -0.3446  0.2812
    4ALA     HA   30   9.851   9.456  10.713 -0.5578 -1.2427  0.6071
    4ALA     CB   31  10.016   9.601  10.730 -0.0705  0.1737 -0.4311
    4ALA    HB1   32   9.957   9.680  10.685  1.4041  0.3644 -2.1030
    4ALA    HB2   33  10.064   9.645  10.818  0.4252 -1.8771  0.3808
    4ALA    HB3   34  10.101   9.561  10.675  0.6298  0.7822  0.1825
    4ALA      C   35  10.008   9.362  10.827  0.4044  0.3019 -0.0838
    4ALA      O   36  10.019   9.320  10.947 -0.2683 -0.4727  0.0843
    5NME      N   37  10.068   9.296  10.724  0.4108  0.3003 -0.0786
    5NME      H   38  10.041   9.328  10.632 -0.5655  1.1508  0.4889
    5NME    CH3   39  10.135   9.166  10.744 -0.1902 -0.6300  0.3330
    5NME   HH31   40  10.063   9.105  10.798 -2.6386  2.3029  0.6808
    5NME   HH32   41  10.163   9.116  10.651 -0.4426  0.3673 -0.2928
    5NME   HH33   42  10.216   9.173  10.817  1.9463 -0.9597 -1.8708
  20.91516  20.91516  20.91516
