Protein
   32
    1ACE   HH31    1  13.021  15.184  13.349 -0.3978 -1.5922 -2.1693
    1ACE    CH3    2  12.950  15.156  13.426  0.7857 -0.2792 -0.5118
    1ACE   HH32    3  12.895  15.241  13.468  1.2068  0.1730 -0.8661
    1ACE   HH33    4  12.990  15.109  13.515 -1.7329  2.6011  2.4228
    1ACE      C    5  12.855  15.050  13.372  0.9522  0.1249  0.1496
    1ACE      O    6  12.888  14.971  13.286  1.1094 -0.3954  0.0780
    2ALA      N    7  12.738  15.045  13.439 -0.1401  0.6027  0.2688
    2ALA      H    8  12.718  15.112  13.511 -1.3098  0.3875  0.1617
    2ALA     CA    9  12.641  14.945  13.408 -0.3880  0.4485  0.5994
    2ALA     HA   10  12.697  14.853  13.395  0.4701  0.5479  2.9641
    2ALA     CB   11  12.561  14.931  13.540  0.4819  0.0137  0.0453
    2ALA    HB1   12  12.625  14.912  13.626  2.0709 -0.8588 -1.2886
    2ALA    HB2   13  12.492  15.013  13.563 -2.7443 -1.5817 -2.9751
    2ALA    HB3   14  12.490  14.849  13.529 -0.5589  0.9978 -0.8859
    2ALA      C   15  12.560  14.979  13.282  0.3817 -0.3132 -0.0469
    2ALA      O   16  12.456  15.045  13.291 -0.1005  0.4035  0.3825
    3ALA      N   17  12.612  14.942  13.163 -0.0669  0.5403  0.3379
    3ALA      H   18  12.703  14.897  13.166  0.0038  0.4593 -1.2917
    3ALA     CA   19  12.565  14.982  13.027  0.0734  0.2312 -0.7366
    3ALA     HA   20  12.489  15.060  13.035 -1.2487 -1.0312 -0.6252
    3ALA     CB   21  12.682  15.045  12.945  0.6793 -0.8402  0.4834
    3ALA    HB1   22  12.705  15.137  13.000  0.5334  0.6954 -1.8887
    3ALA    HB2   23  12.769  14.980  12.940  0.1037 -1.8114  2.1754
    3ALA    HB3   24  12.643  15.079  12.849 -0.1778  0.2099  1.1704
    3ALA      C   25  12.499  14.857  12.959 -0.1905  0.1159  0.1717
    3ALA      O   26  12.560  14.801  12.875  0.5164  0.5103 -0.2448
    4NME      N   27  12.382  14.812  12.999 -0.1314 -0.2820  0.7164
    4NME      H   28  12.346  14.856  13.083 -1.7606 -1.6785  0.8217
    4NME    CH3   29  12.319  14.695  12.947 -0.5567  0.1327  0.0154
    4NME   HH31   30  12.253  14.710  12.861 -0.8914 -0.3756  0.1831
    4NME   HH32   31  12.393  14.622  12.915 -2.4669 -1.3260 -1.3686
    4NME   HH33   32  12.257  14.646  13.021  0.7595 -0.4517  0.7809
  20.99041  20.99041  20.99041
