Protein
   42
    1ACE   HH31    1   9.359  14.069   8.754 -0.3329 -0.5324 -0.2568
    1ACE    CH3    2   9.373  14.145   8.830  0.5503 -0.2466 -0.6889
    1ACE   HH32    3   9.361  14.104   8.931  0.9970 -1.4109 -1.0939
    1ACE   HH33    4   9.302  14.227   8.816  1.6229  1.1726  1.5249
    1ACE      C    5   9.511  14.207   8.809 -0.6182  0.3037  0.2444
    1ACE      O    6   9.594  14.188   8.895  0.0693  0.0761  0.1797
    2ALA      N    7   9.530  14.263   8.689  0.4309  0.0186 -0.5390
    2ALA      H    8   9.454  14.271   8.623 -0.8095  3.4384  1.0855
    2ALA     CA    9   9.663  14.320   8.654  1.8332 -0.4361  0.6410
    2ALA     HA   10   9.738  14.242   8.663  0.9775 -1.4310 -0.4689
    2ALA     CB   11   9.665  14.351   8.502  0.0632  0.3631  0.0556
    2ALA    HB1   12   9.767  14.382   8.481  0.0854  1.5092  1.6548
    2ALA    HB2   13   9.638  14.261   8.447  2.1999  0.4532 -1.2213
    2ALA    HB3   14   9.599  14.433   8.475  0.8752  3.0430  4.9083
    2ALA      C   15   9.691  14.448   8.738  0.9125  0.6198 -0.1878
    2ALA      O   16   9.631  14.551   8.713 -0.4791 -0.2287 -0.3790
    3ALA      N   17   9.753  14.429   8.857 -0.2570 -0.2047 -0.2380
    3ALA      H   18   9.779  14.332   8.868  0.2340  0.0557  1.0331
    3ALA     CA   19   9.769  14.512   8.978 -0.2350  0.0872  0.5329
    3ALA     HA   20   9.826  14.597   8.941  0.7625 -1.5984 -2.0918
    3ALA     CB   21   9.623  14.548   9.024  0.1222  0.1373  0.0108
    3ALA    HB1   22   9.567  14.457   9.044 -0.1980  0.6219  1.4347
    3ALA    HB2   23   9.634  14.615   9.109  3.7560  0.3958 -0.4779
    3ALA    HB3   24   9.556  14.585   8.947  0.5039  0.7253 -0.0449
    3ALA      C   25   9.835  14.429   9.086 -0.2306 -0.4062  0.7202
    3ALA      O   26   9.928  14.483   9.146 -0.0854  0.5830  0.0793
    4ALA      N   27   9.784  14.304   9.111  0.1428 -0.4492  0.4795
    4ALA      H   28   9.703  14.280   9.055  0.4946 -1.9704  0.5526
    4ALA     CA   29   9.804  14.232   9.232  0.0628 -0.6572 -0.4631
    4ALA     HA   30   9.727  14.156   9.222 -1.0369 -0.1746  3.0346
    4ALA     CB   31   9.934  14.156   9.223 -0.1496  0.1275  0.3316
    4ALA    HB1   32  10.016  14.211   9.268 -0.3873 -1.7542  3.3292
    4ALA    HB2   33   9.935  14.058   9.270 -0.1686  0.4077  0.9329
    4ALA    HB3   34   9.964  14.142   9.119 -0.2696  1.8449  0.0462
    4ALA      C   35   9.788  14.300   9.371  0.4117 -1.0541  0.1650
    4ALA      O   36   9.731  14.245   9.462 -0.1888 -0.6621  0.3407
    5NME      N   37   9.831  14.424   9.386  0.2786 -0.5381 -0.1368
    5NME      H   38   9.861  14.470   9.301 -1.4054 -1.0177 -1.0310
    5NME    CH3   39   9.822  14.500   9.503  0.1262 -0.4468 -0.7167
    5NME   HH31   40   9.751  14.577   9.476 -1.8677 -2.1686 -0.6012
    5NME   HH32   41   9.785  14.443   9.588  1.2484  2.2809  1.7076
    5NME   HH33   42   9.926  14.523   9.528 -0.0464 -0.3270 -0.1251
  20.91516  20.91516  20.91516
