Protein
   42
    1ACE   HH31    1  14.744  13.217  15.400  0.5586  1.4623  1.0321
    1ACE    CH3    2  14.685  13.189  15.487 -0.4343  0.1330 -0.0317
    1ACE   HH32    3  14.669  13.082  15.476  1.5258 -0.0615 -1.6485
    1ACE   HH33    4  14.588  13.239  15.486 -0.0711  0.8863  0.8246
    1ACE      C    5  14.763  13.208  15.621 -0.8377  0.3028  0.5428
    1ACE      O    6  14.885  13.237  15.620 -0.1196  0.1049  0.6794
    2ALA      N    7  14.688  13.178  15.725 -0.2796  0.3081 -0.1543
    2ALA      H    8  14.588  13.169  15.714 -0.6621  1.8386  1.5626
    2ALA     CA    9  14.737  13.197  15.860 -0.0603 -0.0593 -0.7568
    2ALA     HA   10  14.843  13.220  15.865 -0.2248  0.3911  1.8550
    2ALA     CB   11  14.666  13.325  15.906  0.8045 -0.1416 -0.1725
    2ALA    HB1   12  14.560  13.319  15.883  0.3113 -0.8930  2.0577
    2ALA    HB2   13  14.672  13.323  16.015 -0.9761 -2.1232 -0.0524
    2ALA    HB3   14  14.720  13.410  15.864  1.1566 -0.5300 -0.5158
    2ALA      C   15  14.683  13.075  15.937 -0.4835  0.0328  0.0539
    2ALA      O   16  14.561  13.066  15.956 -0.1219  0.4938 -0.1459
    3ALA      N   17  14.763  12.975  15.984  0.2441  0.1651  0.3337
    3ALA      H   18  14.712  12.921  16.052 -1.5784  1.2226 -0.1178
    3ALA     CA   19  14.903  12.957  15.962 -0.1481 -0.2267 -0.5855
    3ALA     HA   20  14.922  12.858  16.005 -1.0227 -0.3488 -0.4678
    3ALA     CB   21  14.952  12.953  15.816  0.0853 -0.0512  1.0084
    3ALA    HB1   22  14.965  13.058  15.790 -0.3313 -0.2245  0.0367
    3ALA    HB2   23  15.045  12.897  15.807  1.1278  1.5156  1.5095
    3ALA    HB3   24  14.879  12.904  15.752 -0.0065 -1.8439  2.4066
    3ALA      C   25  14.981  13.051  16.057  0.2649  0.6204  0.3962
    3ALA      O   26  14.926  13.148  16.109  0.0359  0.0887  0.1896
    4ALA      N   27  15.115  13.022  16.070  0.2858  0.3757  0.2943
    4ALA      H   28  15.157  12.934  16.042  0.2019  0.3601  0.2201
    4ALA     CA   29  15.211  13.100  16.152 -0.0486 -0.1104  0.4349
    4ALA     HA   30  15.215  13.205  16.126 -0.7735 -0.5534 -1.6283
    4ALA     CB   31  15.164  13.095  16.304 -0.7912  0.7104 -0.3094
    4ALA    HB1   32  15.155  12.994  16.345  0.1219  0.3721 -0.9015
    4ALA    HB2   33  15.239  13.151  16.358  0.9928 -1.3910 -0.4989
    4ALA    HB3   34  15.071  13.149  16.322 -1.1627  0.0001  0.0028
    4ALA      C   35  15.349  13.049  16.149  0.0550 -0.3067  0.3173
    4ALA      O   36  15.369  12.932  16.113 -0.6238 -0.5947 -0.8500
    5NME      N   37  15.445  13.127  16.197  0.0611  0.4767  0.3558
    5NME      H   38  15.417  13.215  16.238  2.3410  1.1573  0.5815
    5NME    CH3   39  15.580  13.071  16.222  0.4983  0.2921 -0.5654
    5NME   HH31   40  15.587  12.963  16.206  2.4127  0.1337  0.9414
    5NME   HH32   41  15.643  13.126  16.153  1.1751 -2.0278 -1.9185
    5NME   HH33   42  15.605  13.088  16.327  0.3114 -1.5091 -0.1839
  20.91516  20.91516  20.91516
