Protein
   42
    1ACE   HH31    1   9.198  13.885   6.259  0.2771  1.2606  1.8616
    1ACE    CH3    2   9.266  13.951   6.206 -0.0748  0.3273  0.1545
    1ACE   HH32    3   9.368  13.920   6.230  0.9866  1.3127 -2.7451
    1ACE   HH33    4   9.254  14.048   6.254 -0.8817 -0.5620  1.8714
    1ACE      C    5   9.238  13.942   6.052  0.6464  0.3093 -0.9100
    1ACE      O    6   9.308  13.884   5.979 -0.1369 -0.2838  0.4123
    2ALA      N    7   9.120  13.998   6.018  0.8572  0.1125  0.3516
    2ALA      H    8   9.054  14.029   6.088  0.7215 -0.4224  0.4678
    2ALA     CA    9   9.075  14.036   5.876 -1.0013  0.5109 -0.0264
    2ALA     HA   10   8.972  14.003   5.877 -0.5032 -1.2556 -1.0837
    2ALA     CB   11   9.092  14.187   5.855 -1.1474 -1.1113  0.4348
    2ALA    HB1   12   9.041  14.219   5.764 -0.3154  1.1838  0.7053
    2ALA    HB2   13   9.047  14.234   5.942  1.2280 -2.7718  2.6906
    2ALA    HB3   14   9.192  14.229   5.854 -1.4614 -0.2222 -1.9633
    2ALA      C   15   9.139  13.957   5.762 -0.0917  0.2156  0.5019
    2ALA      O   16   9.222  14.012   5.688  0.2677  0.2603  0.0943
    3ALA      N   17   9.093  13.830   5.730  0.0019 -0.1690  0.5290
    3ALA      H   18   9.129  13.788   5.645 -1.0359 -0.9944  0.4793
    3ALA     CA   19   9.000  13.739   5.795  0.7070 -0.3565 -0.4125
    3ALA     HA   20   8.927  13.798   5.850 -1.2866 -1.4996 -1.6682
    3ALA     CB   21   8.918  13.682   5.680  0.0454 -0.2364  0.2062
    3ALA    HB1   22   8.990  13.625   5.620  0.4258  0.7198 -0.2521
    3ALA    HB2   23   8.846  13.606   5.710 -0.5464 -0.4445 -1.6296
    3ALA    HB3   24   8.861  13.757   5.626 -0.2050 -0.7263 -0.2374
    3ALA      C   25   9.064  13.632   5.888  0.4096  0.7318  0.1132
    3ALA      O   26   8.991  13.556   5.953  0.2444  0.2074  0.2537
    4ALA      N   27   9.196  13.616   5.886 -0.6194  0.6417 -0.0927
    4ALA      H   28   9.237  13.687   5.827  0.0255  1.7451  1.6118
    4ALA     CA   29   9.268  13.502   5.933 -0.1338 -0.1074 -0.5122
    4ALA     HA   30   9.210  13.462   6.017 -0.3073 -0.8137 -0.9594
    4ALA     CB   31   9.270  13.393   5.823 -1.1069 -0.1094 -0.9017
    4ALA    HB1   32   9.165  13.370   5.803 -2.2176  2.8992  0.6740
    4ALA    HB2   33   9.329  13.423   5.737  2.9288  0.9133  1.9146
    4ALA    HB3   34   9.310  13.299   5.859  2.1033  1.7470  0.8165
    4ALA      C   35   9.419  13.529   5.976 -0.0666  0.9245  0.7908
    4ALA      O   36   9.475  13.435   6.031  0.0298 -0.0079 -0.2855
    5NME      N   37   9.474  13.648   5.949  0.3661  0.0110 -0.1798
    5NME      H   38   9.411  13.726   5.937  0.5261  0.2665  0.5808
    5NME    CH3   39   9.616  13.675   5.964 -0.0531  0.3058  0.2716
    5NME   HH31   40   9.661  13.579   5.940 -0.5244  0.3532 -0.8971
    5NME   HH32   41   9.653  13.741   5.886 -3.1410  0.0638 -1.5986
    5NME   HH33   42   9.639  13.712   6.064  0.6479  0.1507  0.1715
  20.91516  20.91516  20.91516
