Protein
   42
    1ACE   HH31    1   8.720   8.191   9.591 -0.5888 -1.5462 -1.6467
    1ACE    CH3    2   8.710   8.293   9.554 -0.2109 -0.8632  0.0337
    1ACE   HH32    3   8.640   8.355   9.610 -1.5734 -2.5950  0.2806
    1ACE   HH33    4   8.669   8.287   9.454  2.1239 -0.7170 -1.0121
    1ACE      C    5   8.837   8.372   9.555 -0.7136 -0.0419 -0.5250
    1ACE      O    6   8.948   8.308   9.548 -0.2151  0.2962 -0.4282
    2ALA      N    7   8.833   8.501   9.586 -0.1145 -0.8101  0.1874
    2ALA      H    8   8.741   8.537   9.609  0.1735  0.0779 -0.0076
    2ALA     CA    9   8.947   8.593   9.577  0.9700  0.4859  0.5215
    2ALA     HA   10   9.037   8.531   9.578 -1.1711 -2.8671  0.0224
    2ALA     CB   11   8.939   8.675   9.443  0.0950  0.0510  0.0478
    2ALA    HB1   12   8.964   8.612   9.357  1.1644  0.7720 -0.2069
    2ALA    HB2   13   8.841   8.721   9.431  1.2315  2.4480 -0.8752
    2ALA    HB3   14   9.018   8.750   9.444  0.1403 -0.0001  1.1211
    2ALA      C   15   8.955   8.672   9.710  0.2146 -0.1773  0.4477
    2ALA      O   16   8.898   8.785   9.723  0.9212  0.0029  0.1091
    3ALA      N   17   9.031   8.627   9.810  0.0941 -0.5573  0.3137
    3ALA      H   18   9.032   8.689   9.890  2.0294  0.6033 -0.5051
    3ALA     CA   19   9.088   8.498   9.835  0.6193 -0.0957 -0.0456
    3ALA     HA   20   9.148   8.474   9.747  2.0606 -0.0763  0.8959
    3ALA     CB   21   9.190   8.507   9.948  0.4509 -0.8349  0.3414
    3ALA    HB1   22   9.140   8.518  10.044 -1.2991  1.8708 -0.8067
    3ALA    HB2   23   9.242   8.412   9.967 -2.4055 -2.3172  1.2917
    3ALA    HB3   24   9.247   8.599   9.937 -1.8441  0.4428 -1.8364
    3ALA      C   25   8.973   8.391   9.862 -0.6610  0.1872  0.1791
    3ALA      O   26   8.853   8.422   9.871  0.8144 -0.0669  0.5031
    4ALA      N   27   9.009   8.266   9.877 -0.2094 -0.1302  0.0457
    4ALA      H   28   9.107   8.248   9.861  0.4820  2.0683  1.4149
    4ALA     CA   29   8.927   8.152   9.938 -0.4836 -0.2424  0.6598
    4ALA     HA   30   8.824   8.168   9.905 -0.3207  0.5797  0.5056
    4ALA     CB   31   8.967   8.019   9.889  0.4268  0.5483  0.1714
    4ALA    HB1   32   8.913   7.949   9.951 -0.9636  1.0416 -0.4376
    4ALA    HB2   33   8.941   8.005   9.784  1.7957 -1.7013  0.0737
    4ALA    HB3   34   9.075   8.010   9.903  0.1872 -0.8530  1.3605
    4ALA      C   35   8.947   8.161  10.093  0.2372  0.2062  0.3113
    4ALA      O   36   9.054   8.209  10.138  0.2451  1.0062  0.1818
    5NME      N   37   8.842   8.123  10.162 -0.6623  0.5494 -0.0434
    5NME      H   38   8.764   8.070  10.127 -1.7117  0.7269  1.8340
    5NME    CH3   39   8.844   8.114  10.310  0.0535 -0.3516 -0.6262
    5NME   HH31   40   8.940   8.130  10.358 -0.0242 -0.7075 -0.3542
    5NME   HH32   41   8.773   8.188  10.348 -0.7670 -1.5423  0.2337
    5NME   HH33   42   8.816   8.017  10.351  1.2479 -0.8538 -0.9463
  20.91516  20.91516  20.91516
