Protein
   42
    1ACE   HH31    1  10.510  12.212  10.134 -1.0456  0.6254  1.3232
    1ACE    CH3    2  10.451  12.144  10.073 -0.5577  0.5487  0.9245
    1ACE   HH32    3  10.393  12.198   9.998  2.0427  0.8864 -1.0211
    1ACE   HH33    4  10.395  12.066  10.123 -0.3593  0.7520  1.4679
    1ACE      C    5  10.567  12.077   9.993 -0.0547 -0.4777  0.0411
    1ACE      O    6  10.553  12.037   9.874 -0.4275 -0.4122 -0.0573
    2ALA      N    7  10.683  12.077  10.052 -0.2771  0.4013 -0.7647
    2ALA      H    8  10.683  12.095  10.151 -2.2337 -2.5111 -0.0849
    2ALA     CA    9  10.801  12.020   9.988 -0.1751 -0.1407 -0.2055
    2ALA     HA   10  10.791  11.999   9.882 -0.2758 -1.3940  0.0312
    2ALA     CB   11  10.916  12.122  10.012 -0.1819  0.2094 -0.4974
    2ALA    HB1   12  10.906  12.201   9.938  0.1228 -0.7845 -1.6274
    2ALA    HB2   13  10.922  12.147  10.118  1.8468 -0.9048 -0.2844
    2ALA    HB3   14  11.009  12.069   9.994 -0.1524  0.1847 -0.2919
    2ALA      C   15  10.847  11.885  10.050  0.3352  0.4897  0.1908
    2ALA      O   16  10.827  11.864  10.171  0.1607  0.4046  0.0234
    3ALA      N   17  10.908  11.793   9.976  0.0503  0.3260  0.1553
    3ALA      H   18  10.928  11.709  10.028  2.0491  0.9368  0.4435
    3ALA     CA   19  10.934  11.782   9.831 -0.0421 -0.3647  0.2285
    3ALA     HA   20  10.850  11.809   9.768  0.2317 -1.8578 -0.8292
    3ALA     CB   21  11.051  11.873   9.801  0.7219 -0.1460 -0.5490
    3ALA    HB1   22  11.133  11.844   9.867 -0.2632 -3.2363 -0.5313
    3ALA    HB2   23  11.093  11.862   9.701 -0.2974 -0.9348 -0.9079
    3ALA    HB3   24  11.018  11.976   9.817  1.6505  0.1929 -0.7297
    3ALA      C   25  10.973  11.638   9.796  0.5888 -0.0202 -0.2494
    3ALA      O   26  10.969  11.547   9.877  0.0137 -0.8154 -0.3643
    4ALA      N   27  11.014  11.616   9.672  0.6739  1.0349 -0.3571
    4ALA      H   28  11.002  11.694   9.609 -1.9353 -0.6502 -2.1547
    4ALA     CA   29  11.067  11.482   9.618 -0.6687 -0.9463  0.4387
    4ALA     HA   30  11.010  11.393   9.644  0.5508 -2.3204 -1.3630
    4ALA     CB   31  11.054  11.489   9.464  0.1052  0.3371 -0.3400
    4ALA    HB1   32  11.132  11.431   9.415  0.9088  1.3261 -0.2497
    4ALA    HB2   33  10.954  11.454   9.438  0.4052  1.3639 -3.1170
    4ALA    HB3   34  11.048  11.592   9.430  0.8890  1.0157  1.4319
    4ALA      C   35  11.210  11.450   9.673  0.6891  0.2424  0.3456
    4ALA      O   36  11.291  11.428   9.584 -0.1678  0.0975  0.7368
    5NME      N   37  11.238  11.460   9.806  0.9513  0.2656  0.0465
    5NME      H   38  11.164  11.487   9.869  2.0900  0.1188  1.5197
    5NME    CH3   39  11.375  11.443   9.858  0.3913  0.5951  0.4859
    5NME   HH31   40  11.379  11.484   9.959  0.0927  0.6129  0.4916
    5NME   HH32   41  11.399  11.338   9.839 -0.2474  0.8326 -2.0195
    5NME   HH33   42  11.445  11.494   9.793  0.5852  0.4595  0.5891
  20.91516  20.91516  20.91516
