Protein
   42
    1ACE   HH31    1  10.725  14.989  12.358 -0.2398 -0.1218 -0.3042
    1ACE    CH3    2  10.722  15.083  12.414  0.3553 -0.4028  0.2174
    1ACE   HH32    3  10.824  15.117  12.428  0.1175  0.2699  0.3121
    1ACE   HH33    4  10.670  15.075  12.510 -1.0381 -0.1772 -0.4905
    1ACE      C    5  10.647  15.180  12.332  0.9160 -0.8639  0.0557
    1ACE      O    6  10.554  15.148  12.268 -0.0131 -0.0365  0.2508
    2ALA      N    7  10.680  15.315  12.344  0.2280 -0.0503 -0.1741
    2ALA      H    8  10.753  15.341  12.408 -0.3259  1.5001 -0.1585
    2ALA     CA    9  10.591  15.427  12.321 -0.2135 -0.4343  0.1345
    2ALA     HA   10  10.631  15.499  12.392 -0.9718 -0.3880  0.5345
    2ALA     CB   11  10.615  15.469  12.172 -0.2187 -0.0758  1.2500
    2ALA    HB1   12  10.537  15.537  12.139  0.7464  0.6887  0.5114
    2ALA    HB2   13  10.713  15.516  12.165  0.4922 -1.8221 -2.4625
    2ALA    HB3   14  10.610  15.385  12.103 -3.0708 -2.0762  3.5959
    2ALA      C   15  10.439  15.413  12.364  0.3237  0.4803 -0.2360
    2ALA      O   16  10.341  15.463  12.305 -0.0296 -0.1659  0.4007
    3ALA      N   17  10.421  15.341  12.478 -0.3295 -0.5580  0.2049
    3ALA      H   18  10.506  15.309  12.523  1.0668  0.5438 -1.5297
    3ALA     CA   19  10.299  15.297  12.527 -0.8902  0.8727 -0.6262
    3ALA     HA   20  10.259  15.385  12.578 -2.1348 -1.0996  2.0857
    3ALA     CB   21  10.201  15.231  12.427 -0.1422 -0.2867  0.0053
    3ALA    HB1   22  10.242  15.145  12.374  2.7794  1.1581 -0.2716
    3ALA    HB2   23  10.116  15.198  12.487 -0.8703 -1.2686 -1.5050
    3ALA    HB3   24  10.167  15.298  12.348 -0.9515 -1.9987 -1.1358
    3ALA      C   25  10.338  15.197  12.640  0.0527 -0.9174 -0.1028
    3ALA      O   26  10.455  15.161  12.653 -0.1810 -0.5861 -0.0588
    4ALA      N   27  10.243  15.160  12.726  0.5843 -0.2163 -0.1227
    4ALA      H   28  10.151  15.199  12.707 -0.2004 -1.9390 -0.1056
    4ALA     CA   29  10.267  15.089  12.851  0.6498  0.2394 -0.6305
    4ALA     HA   30  10.309  14.990  12.831 -0.4325 -0.6014  1.0225
    4ALA     CB   31  10.347  15.177  12.946 -1.0052 -0.1717 -0.3435
    4ALA    HB1   32  10.335  15.157  13.052  0.5632  0.7352  0.0425
    4ALA    HB2   33  10.455  15.179  12.928 -0.8087  0.5222  0.8592
    4ALA    HB3   34  10.304  15.277  12.943  1.9881  1.4335  3.2438
    4ALA      C   35  10.139  15.058  12.936 -0.0799  0.3891  0.4746
    4ALA      O   36  10.038  15.123  12.923 -0.2859 -0.3415 -0.0189
    5NME      N   37  10.145  14.956  13.023 -0.4011  0.2542 -0.1331
    5NME      H   38  10.233  14.908  13.017  0.9657  2.4608  0.8651
    5NME    CH3   39  10.039  14.888  13.099 -0.2643  0.8100 -0.6071
    5NME   HH31   40  10.080  14.809  13.162 -1.1885  1.1204  0.4152
    5NME   HH32   41  10.002  14.961  13.171  1.2005  1.6134 -0.6423
    5NME   HH33   42   9.966  14.852  13.027  0.4713  1.8342 -1.9111
  20.91516  20.91516  20.91516
