Protein
   42
    1ACE   HH31    1   9.246  10.804  15.047  0.3396 -0.4581 -0.7838
    1ACE    CH3    2   9.167  10.732  15.071 -0.0635  0.1428 -0.2690
    1ACE   HH32    3   9.068  10.774  15.059 -0.8058 -0.1224  3.6576
    1ACE   HH33    4   9.184  10.697  15.172 -1.0634 -1.0760 -0.5051
    1ACE      C    5   9.191  10.610  14.985 -0.6178 -0.5213  0.3427
    1ACE      O    6   9.131  10.506  15.010 -0.0239  0.1219 -0.6472
    2ALA      N    7   9.288  10.612  14.885  0.3495 -0.3822 -0.8205
    2ALA      H    8   9.339  10.699  14.878 -1.9349  1.0363 -0.8429
    2ALA     CA    9   9.335  10.510  14.787 -0.0844  0.2184 -1.2864
    2ALA     HA   10   9.346  10.555  14.688  1.7969 -0.8421 -1.6157
    2ALA     CB   11   9.477  10.479  14.836 -0.6095  0.1073  0.1962
    2ALA    HB1   12   9.479  10.431  14.934  0.6270 -0.8686 -0.2651
    2ALA    HB2   13   9.530  10.420  14.761 -1.0938 -1.9585  1.3834
    2ALA    HB3   14   9.532  10.570  14.856  0.8443 -0.2915 -1.6341
    2ALA      C   15   9.249  10.390  14.761  0.1856 -0.2771  0.3097
    2ALA      O   16   9.290  10.274  14.766 -0.3021 -0.0438  0.0405
    3ALA      N   17   9.118  10.425  14.745  0.4214  0.1936 -0.3632
    3ALA      H   18   9.093  10.514  14.787  1.1516 -0.2440  1.0673
    3ALA     CA   19   9.005  10.340  14.689 -0.4304 -0.8358  0.6061
    3ALA     HA   20   8.937  10.420  14.660  0.8207  1.3681  3.2791
    3ALA     CB   21   9.040  10.265  14.556 -0.6789  0.2520 -0.6543
    3ALA    HB1   22   8.950  10.212  14.524 -1.9356  3.5733 -3.2258
    3ALA    HB2   23   9.081  10.328  14.478 -0.4312 -1.3411 -1.8488
    3ALA    HB3   24   9.116  10.200  14.599 -1.5119 -0.0316  0.4702
    3ALA      C   25   8.925  10.263  14.800  0.2578 -0.9195 -0.4899
    3ALA      O   26   8.825  10.206  14.768  0.4790 -0.0215  0.4552
    4ALA      N   27   8.956  10.285  14.928 -0.5306  0.3858  0.3431
    4ALA      H   28   9.013  10.366  14.947 -0.7946  0.4574  0.8506
    4ALA     CA   29   8.919  10.207  15.053 -0.0415  0.1550  0.9269
    4ALA     HA   30   8.997  10.247  15.118  1.2127 -0.0255 -0.4241
    4ALA     CB   31   8.779  10.256  15.100  0.8090  0.2580 -0.3934
    4ALA    HB1   32   8.705  10.227  15.026  1.1471  2.6063 -1.7478
    4ALA    HB2   33   8.765  10.222  15.203  1.8103  2.4479  0.5482
    4ALA    HB3   34   8.785  10.364  15.115  2.3961 -0.0624  2.0086
    4ALA      C   35   8.926  10.058  15.052  0.9845 -0.1857 -0.3052
    4ALA      O   36   8.893   9.991  15.148  0.4695  0.3404  0.0821
    5NME      N   37   9.002   9.998  14.955 -0.0599  0.0553 -0.0644
    5NME      H   38   9.031  10.059  14.880 -3.1359  1.0613 -0.5604
    5NME    CH3   39   9.067   9.872  14.979  0.1611  0.0437  0.5573
    5NME   HH31   40   9.141   9.847  14.903  1.2242 -1.2549  1.9767
    5NME   HH32   41   9.104   9.873  15.081 -2.3500  0.8734  1.5345
    5NME   HH33   42   8.991   9.795  14.973  1.2650 -0.9776 -1.3372
  20.91516  20.91516  20.91516
