Protein
   32
    1ACE   HH31    1   9.449  10.121  12.767  0.9032  0.5494 -1.2997
    1ACE    CH3    2   9.399  10.047  12.705 -0.0043 -0.4215  0.5161
    1ACE   HH32    3   9.330  10.000  12.775 -0.6722 -0.9916 -0.5022
    1ACE   HH33    4   9.464   9.980  12.649 -1.8391 -0.7372 -1.3385
    1ACE      C    5   9.307  10.115  12.610 -0.6403  0.7593  0.5284
    1ACE      O    6   9.260  10.042  12.519  0.2610 -0.4041 -0.1180
    2ALA      N    7   9.274  10.239  12.629  0.8015  0.2019  0.5588
    2ALA      H    8   9.341  10.290  12.685  0.1888 -1.1118  2.5789
    2ALA     CA    9   9.185  10.319  12.540  0.5308 -0.3663 -0.1082
    2ALA     HA   10   9.091  10.264  12.533  0.6039 -0.4803 -0.1775
    2ALA     CB   11   9.148  10.452  12.610  0.0161  0.4119  0.3865
    2ALA    HB1   12   9.227  10.527  12.604 -0.0414  0.5599  1.2609
    2ALA    HB2   13   9.061  10.490  12.556  0.5959  0.3166 -0.6477
    2ALA    HB3   14   9.127  10.424  12.713 -0.6639 -0.6550 -0.0274
    2ALA      C   15   9.217  10.336  12.391  0.3975 -0.0575  0.4442
    2ALA      O   16   9.201  10.443  12.337  0.2478  0.1465  0.6954
    3ALA      N   17   9.265  10.234  12.321  0.2543  0.6786  0.1376
    3ALA      H   18   9.256  10.148  12.374 -1.0677  1.5729  1.4759
    3ALA     CA   19   9.302  10.229  12.184  0.2753  0.1710  0.2481
    3ALA     HA   20   9.368  10.313  12.161 -0.3541  0.7416  0.5073
    3ALA     CB   21   9.404  10.117  12.160 -0.2738 -0.4987  0.2682
    3ALA    HB1   22   9.488  10.138  12.227  1.2140  1.2284 -2.0032
    3ALA    HB2   23   9.358  10.022  12.188 -0.4569 -0.3297  0.5524
    3ALA    HB3   24   9.438  10.119  12.057  3.2713 -3.5953  1.1423
    3ALA      C   25   9.181  10.223  12.088 -0.5986  0.2677  0.0340
    3ALA      O   26   9.065  10.206  12.125  0.3302  0.0118 -0.3058
    4NME      N   27   9.215  10.230  11.954 -0.1122 -0.3970 -0.1767
    4NME      H   28   9.310  10.255  11.930 -0.5758  0.8927 -0.7839
    4NME    CH3   29   9.113  10.233  11.846  0.2059  0.3486  0.0085
    4NME   HH31   30   9.090  10.338  11.832 -1.8912 -0.2790 -2.3571
    4NME   HH32   31   9.160  10.197  11.754 -1.1551  0.7218 -0.8739
    4NME   HH33   32   9.031  10.172  11.885 -1.4306  2.3115 -0.2048
  20.99041  20.99041  20.99041
