Protein
   42
    1ACE   HH31    1   4.959  17.203   3.136 -1.2118  0.4468  0.1258
    1ACE    CH3    2   4.960  17.295   3.077  0.6308  0.2483 -0.2136
    1ACE   HH32    3   4.920  17.370   3.145 -3.8298 -0.8912 -1.2232
    1ACE   HH33    4   4.893  17.289   2.991  1.7506  0.2561 -1.1137
    1ACE      C    5   5.103  17.310   3.035  0.7124 -0.2627  0.2946
    1ACE      O    6   5.161  17.417   3.070 -0.5993 -0.1704  0.4686
    2ALA      N    7   5.171  17.214   2.970  0.4782 -0.1952 -0.1226
    2ALA      H    8   5.108  17.142   2.938 -1.4806  1.8225 -1.0884
    2ALA     CA    9   5.314  17.193   2.949  0.2593  0.0212  0.1641
    2ALA     HA   10   5.319  17.090   2.914 -0.1344 -0.8987  2.6097
    2ALA     CB   11   5.361  17.277   2.828  0.1713 -0.4323  0.8875
    2ALA    HB1   12   5.347  17.384   2.840  0.3513 -0.1742 -0.9366
    2ALA    HB2   13   5.466  17.263   2.803 -0.1859  1.2507 -1.8926
    2ALA    HB3   14   5.295  17.250   2.745  1.2820  1.5625 -0.7144
    2ALA      C   15   5.406  17.204   3.079 -0.2175 -0.8636  0.0811
    2ALA      O   16   5.494  17.118   3.096  0.0450  0.1289 -0.0489
    3ALA      N   17   5.383  17.304   3.169  0.2009  0.2031 -0.0659
    3ALA      H   18   5.310  17.368   3.139  0.4638  0.4519 -0.1846
    3ALA     CA   19   5.473  17.361   3.271 -0.6124  0.4123 -0.4128
    3ALA     HA   20   5.494  17.289   3.351  2.8071  1.3550 -0.3053
    3ALA     CB   21   5.604  17.394   3.197 -0.2872  0.6493 -0.1401
    3ALA    HB1   22   5.655  17.299   3.183 -0.0813  0.5943  0.8514
    3ALA    HB2   23   5.593  17.450   3.104 -1.0228 -0.5769 -0.8212
    3ALA    HB3   24   5.673  17.449   3.261  1.5398  1.6940 -2.8127
    3ALA      C   25   5.428  17.499   3.338  0.2505  0.0531 -0.4842
    3ALA      O   26   5.485  17.535   3.447 -0.4168  0.3035  0.1918
    4ALA      N   27   5.319  17.563   3.289 -0.5353 -0.2493  0.1934
    4ALA      H   28   5.272  17.522   3.210 -0.3125  0.1415 -0.1420
    4ALA     CA   29   5.252  17.675   3.354  0.1540  0.6845 -0.1770
    4ALA     HA   30   5.322  17.727   3.420  0.0572 -1.9588  2.2124
    4ALA     CB   31   5.197  17.776   3.249  0.2236  0.3601 -0.7915
    4ALA    HB1   32   5.114  17.734   3.193 -0.6208  1.2674 -0.2500
    4ALA    HB2   33   5.162  17.868   3.296  1.1839  1.4068 -2.0296
    4ALA    HB3   34   5.280  17.802   3.183  0.6169  0.2844 -0.3401
    4ALA      C   35   5.145  17.636   3.450 -0.5586  0.6576 -0.0379
    4ALA      O   36   5.024  17.666   3.447  0.9262  0.0678 -0.0102
    5NME      N   37   5.194  17.562   3.555  0.1561 -0.4851  0.5892
    5NME      H   38   5.294  17.547   3.557  0.4959  1.3098 -0.7914
    5NME    CH3   39   5.116  17.496   3.658  0.5457  0.8449 -0.2018
    5NME   HH31   40   5.134  17.539   3.757  0.2114 -0.3230  0.3760
    5NME   HH32   41   5.013  17.505   3.626  0.2144 -0.7733  0.3454
    5NME   HH33   42   5.139  17.390   3.666 -2.0731  0.0430 -2.0182
  20.91516  20.91516  20.91516
