Protein
   42
    1ACE   HH31    1   2.992  10.727  10.461 -0.0234  1.5966  0.5694
    1ACE    CH3    2   2.917  10.764  10.391  0.3048  0.6559 -0.3091
    1ACE   HH32    3   2.873  10.672  10.353  2.4860 -0.5140 -0.1536
    1ACE   HH33    4   2.948  10.836  10.315  1.6163 -1.7055 -2.1843
    1ACE      C    5   2.826  10.839  10.479  0.7719 -0.4132 -0.1888
    1ACE      O    6   2.707  10.820  10.472 -0.1129  0.0884 -0.1045
    2ALA      N    7   2.880  10.940  10.554  0.2488  0.1109 -0.2338
    2ALA      H    8   2.976  10.966  10.534  0.5535 -0.4323  0.4548
    2ALA     CA    9   2.789  11.055  10.611 -0.8643  0.4304  0.7039
    2ALA     HA   10   2.700  11.050  10.548 -0.7156  0.0811  0.5164
    2ALA     CB   11   2.753  11.022  10.755 -0.0429  0.6656 -0.0572
    2ALA    HB1   12   2.699  11.102  10.805 -0.6685  1.3404 -1.7161
    2ALA    HB2   13   2.693  10.931  10.756 -0.8997  1.2129  0.7285
    2ALA    HB3   14   2.842  11.000  10.813  0.5529 -0.4855 -1.3283
    2ALA      C   15   2.854  11.196  10.588  0.2468 -0.3634  0.9570
    2ALA      O   16   2.972  11.214  10.587 -1.1506  0.0553 -0.2153
    3ALA      N   17   2.769  11.296  10.582  0.0504  0.5553  0.1506
    3ALA      H   18   2.813  11.386  10.568  0.3216  0.9722  3.1270
    3ALA     CA   19   2.617  11.290  10.578  0.4434  0.5546  0.0869
    3ALA     HA   20   2.576  11.222  10.652  0.0214 -1.0182 -1.5294
    3ALA     CB   21   2.578  11.438  10.599 -0.8830 -0.0415 -0.0604
    3ALA    HB1   22   2.471  11.444  10.622 -0.6319 -0.6396  1.3216
    3ALA    HB2   23   2.628  11.458  10.693 -1.1868 -0.5203  0.2135
    3ALA    HB3   24   2.603  11.502  10.514  2.5629 -1.7710 -0.5044
    3ALA      C   25   2.555  11.247  10.446 -0.7141 -0.1770  0.4678
    3ALA      O   26   2.626  11.250  10.345 -0.5283 -0.0678  0.1930
    4ALA      N   27   2.429  11.205  10.446  0.3117 -0.3545 -0.4881
    4ALA      H   28   2.378  11.214  10.532 -1.3962  1.8113 -1.6426
    4ALA     CA   29   2.350  11.158  10.329  0.2930  0.1129  0.2869
    4ALA     HA   30   2.417  11.087  10.282 -0.0028 -0.9595  1.4433
    4ALA     CB   31   2.222  11.079  10.373 -0.9799  0.2192  0.1064
    4ALA    HB1   32   2.249  11.007  10.450 -1.3542  0.2278  0.2487
    4ALA    HB2   33   2.158  11.156  10.417  0.7572  0.9214  1.4799
    4ALA    HB3   34   2.178  11.029  10.286  1.7893  0.4822 -1.5638
    4ALA      C   35   2.313  11.258  10.216  0.6313 -0.6210 -0.0313
    4ALA      O   36   2.199  11.257  10.161 -1.0914 -0.0133  0.9813
    5NME      N   37   2.399  11.364  10.206  0.1239  0.0326  0.2036
    5NME      H   38   2.493  11.346  10.238  0.0177  1.7777  1.6067
    5NME    CH3   39   2.374  11.467  10.110 -0.2014 -0.1929  0.3055
    5NME   HH31   40   2.329  11.551  10.163 -0.9524 -0.9912  0.9688
    5NME   HH32   41   2.468  11.508  10.072 -0.1417 -0.8388 -0.2680
    5NME   HH33   42   2.309  11.426  10.033  0.5497 -0.8412  0.0034
  20.91516  20.91516  20.91516
