Protein
   42
    1ACE   HH31    1   8.931   8.269  12.572  2.6290 -1.4230  1.8509
    1ACE    CH3    2   8.867   8.250  12.658 -0.4080  0.4028  0.1708
    1ACE   HH32    3   8.889   8.151  12.698  1.3262  0.7069  0.0559
    1ACE   HH33    4   8.764   8.268  12.626  0.2057  1.0320 -1.6433
    1ACE      C    5   8.918   8.348  12.764  0.1625 -0.0841  0.3363
    1ACE      O    6   8.856   8.448  12.793  0.1081  0.4939 -0.1744
    2ALA      N    7   9.031   8.319  12.824 -0.3182 -0.1764 -0.3063
    2ALA      H    8   9.065   8.225  12.813 -1.3274 -0.7024  0.9211
    2ALA     CA    9   9.120   8.410  12.910  0.0222 -0.0404 -0.5495
    2ALA     HA   10   9.211   8.352  12.924  0.6629  1.1680  0.4653
    2ALA     CB   11   9.175   8.524  12.828 -0.3038 -0.2163 -0.3318
    2ALA    HB1   12   9.217   8.479  12.738  0.2728 -1.4677  0.5356
    2ALA    HB2   13   9.095   8.590  12.796 -0.0766 -0.2995 -1.0984
    2ALA    HB3   14   9.239   8.595  12.881  0.0336 -0.3738 -0.5170
    2ALA      C   15   9.074   8.436  13.055  0.2918  0.0408  0.1185
    2ALA      O   16   9.135   8.505  13.133 -0.2845  0.9438  0.4603
    3ALA      N   17   8.965   8.361  13.092  0.3719 -0.2511 -0.1559
    3ALA      H   18   8.931   8.302  13.017 -0.4895 -1.4112  1.0903
    3ALA     CA   19   8.870   8.378  13.201 -0.3623  0.4471 -0.1325
    3ALA     HA   20   8.911   8.335  13.293  2.4867  1.9368 -0.6057
    3ALA     CB   21   8.837   8.525  13.225  0.4892 -0.7623  0.2178
    3ALA    HB1   22   8.830   8.574  13.128 -1.1929 -1.1944  0.0895
    3ALA    HB2   23   8.748   8.540  13.286  0.5254  0.4439 -0.0096
    3ALA    HB3   24   8.921   8.567  13.280  0.0008  0.5457 -0.0053
    3ALA      C   25   8.737   8.305  13.161 -0.0919  0.9143 -0.7113
    3ALA      O   26   8.700   8.209  13.229  0.1215  0.3956 -0.1211
    4ALA      N   27   8.689   8.333  13.044 -0.3304 -0.4297  0.6623
    4ALA      H   28   8.756   8.377  12.982 -0.2347 -1.8048 -0.2618
    4ALA     CA   29   8.570   8.281  12.962 -0.4483  0.0268 -0.4133
    4ALA     HA   30   8.614   8.246  12.868  0.9514  0.0969  0.1952
    4ALA     CB   31   8.502   8.158  13.014  0.1295 -0.0238 -0.1879
    4ALA    HB1   32   8.565   8.070  13.011 -0.0928 -0.3232  2.0171
    4ALA    HB2   33   8.480   8.192  13.116  2.1235 -0.5276  0.4512
    4ALA    HB3   34   8.409   8.149  12.959 -0.3098  2.7128 -0.0749
    4ALA      C   35   8.481   8.393  12.909  0.6133 -0.1237  0.2620
    4ALA      O   36   8.381   8.370  12.841 -0.0185 -0.4299  0.2822
    5NME      N   37   8.524   8.518  12.918 -0.4082  0.1229 -0.1830
    5NME      H   38   8.614   8.531  12.961 -0.4053  0.4288 -0.2746
    5NME    CH3   39   8.454   8.633  12.862  0.1809  0.5663 -0.2035
    5NME   HH31   40   8.354   8.633  12.904  0.0415 -1.8984 -0.4157
    5NME   HH32   41   8.508   8.724  12.887 -0.6815  0.5393  2.0259
    5NME   HH33   42   8.440   8.622  12.755 -0.8498 -0.8951  0.0482
  20.91516  20.91516  20.91516
