Protein
   42
    1ACE   HH31    1  18.582  10.632  13.863 -2.6385  1.1923 -1.2351
    1ACE    CH3    2  18.524  10.542  13.885 -0.0292 -0.3928 -0.3100
    1ACE   HH32    3  18.428  10.575  13.925  0.0767 -0.4455 -0.0064
    1ACE   HH33    4  18.562  10.471  13.958 -0.6539 -0.4317 -0.0157
    1ACE      C    5  18.514  10.461  13.755 -0.3811 -0.1221  0.0391
    1ACE      O    6  18.479  10.516  13.650 -0.3952 -0.6576  0.4528
    2ALA      N    7  18.503  10.332  13.774  0.7149 -0.3072  0.4019
    2ALA      H    8  18.516  10.297  13.868 -1.8379 -2.0556  0.1897
    2ALA     CA    9  18.496  10.226  13.665  0.1932  0.4686  0.0666
    2ALA     HA   10  18.582  10.235  13.597 -0.5224 -0.7111 -1.0295
    2ALA     CB   11  18.488  10.090  13.736  0.4394  0.9108  0.1998
    2ALA    HB1   12  18.393  10.088  13.790  0.8189 -0.5889  0.9039
    2ALA    HB2   13  18.484  10.012  13.660 -1.3023  0.3701  0.8027
    2ALA    HB3   14  18.578  10.073  13.795  0.3967 -0.5550 -0.1046
    2ALA      C   15  18.370  10.228  13.571 -0.6941  0.7874 -0.2044
    2ALA      O   16  18.363  10.147  13.478 -0.1395  0.9130 -0.2549
    3ALA      N   17  18.271  10.307  13.603  0.1186 -0.5757  0.7094
    3ALA      H   18  18.286  10.362  13.686  0.0059 -0.0180  0.3631
    3ALA     CA   19  18.131  10.306  13.548  0.2224 -0.3920 -0.0173
    3ALA     HA   20  18.084  10.377  13.616 -1.7826 -1.0742 -0.6460
    3ALA     CB   21  18.126  10.361  13.403 -0.0853  0.1210 -0.6008
    3ALA    HB1   22  18.184  10.294  13.340 -0.5073 -0.1726 -0.6808
    3ALA    HB2   23  18.025  10.361  13.361 -1.0139  1.4790  1.5075
    3ALA    HB3   24  18.172  10.460  13.398  0.0758  0.0186 -1.3883
    3ALA      C   25  18.058  10.173  13.566  0.5101 -0.3689 -0.0646
    3ALA      O   26  17.981  10.160  13.660 -0.4336 -0.0522 -0.1433
    4ALA      N   27  18.108  10.068  13.503  0.2528 -0.6076  0.2470
    4ALA      H   28  18.186  10.093  13.444  1.0322 -0.7805  1.1695
    4ALA     CA   29  18.068   9.927  13.495 -0.4042 -0.0597 -0.0978
    4ALA     HA   30  18.010   9.914  13.404  0.6613  0.3926 -0.8735
    4ALA     CB   31  18.197   9.845  13.463  0.0641  0.0207  0.0430
    4ALA    HB1   32  18.229   9.872  13.362 -0.3522  1.4879  0.2745
    4ALA    HB2   33  18.278   9.866  13.532 -1.2207  1.4602  1.2057
    4ALA    HB3   34  18.170   9.740  13.463  3.9316 -1.1784  3.0419
    4ALA      C   35  17.980   9.861  13.602  0.4019 -0.2377 -0.8704
    4ALA      O   36  17.885   9.788  13.571  0.6502 -0.8261  0.0081
    5NME      N   37  18.008   9.877  13.734 -0.2058  0.4216 -0.2280
    5NME      H   38  18.097   9.923  13.749 -0.0309  0.3982 -1.1219
    5NME    CH3   39  17.928   9.840  13.854 -0.2427  0.7583  0.4471
    5NME   HH31   40  17.947   9.900  13.942 -2.1693  1.3954  0.4759
    5NME   HH32   41  17.823   9.834  13.827  0.1588 -0.3667 -1.0358
    5NME   HH33   42  17.953   9.738  13.884  1.7323  1.0289 -0.0901
  20.91516  20.91516  20.91516
