Protein
   32
    1ACE   HH31    1  12.977  10.567   8.097  1.6063  0.5603 -2.9816
    1ACE    CH3    2  12.964  10.461   8.073  0.1147 -0.1585  0.3561
    1ACE   HH32    3  12.861  10.431   8.090  0.5009 -1.7542 -0.0252
    1ACE   HH33    4  13.032  10.401   8.134  0.5807 -1.5759 -1.4755
    1ACE      C    5  13.010  10.421   7.933  0.7373  0.3243 -0.0552
    1ACE      O    6  12.956  10.332   7.865  0.2542  0.0706 -0.3412
    2ALA      N    7  13.112  10.496   7.895  0.0440 -0.2755 -0.2170
    2ALA      H    8  13.139  10.570   7.958 -2.2064 -0.4599  1.0288
    2ALA     CA    9  13.203  10.471   7.785 -0.6671  0.4923  0.6900
    2ALA     HA   10  13.292  10.533   7.791 -0.9612  0.9223  0.5703
    2ALA     CB   11  13.249  10.326   7.786 -0.9072 -0.0987  0.4706
    2ALA    HB1   12  13.168  10.259   7.758 -0.8725 -0.5197  1.3400
    2ALA    HB2   13  13.330  10.304   7.716 -2.1890 -0.0427 -1.0850
    2ALA    HB3   14  13.299  10.296   7.878  1.5317  1.0751 -0.3878
    2ALA      C   15  13.143  10.510   7.647 -0.0973 -0.1300 -0.5547
    2ALA      O   16  13.200  10.597   7.583  0.0146  0.1546 -0.1067
    3ALA      N   17  13.023  10.473   7.610  0.2159  0.4857 -0.5723
    3ALA      H   18  12.984  10.411   7.679 -0.1952  1.4548  0.0839
    3ALA     CA   19  12.940  10.503   7.492 -0.7687 -0.2391 -0.0585
    3ALA     HA   20  12.979  10.596   7.452  1.4332 -0.7362  0.7097
    3ALA     CB   21  12.966  10.392   7.395 -0.2619 -0.2942 -0.7368
    3ALA    HB1   22  12.938  10.295   7.435  0.9197 -0.5996 -0.5943
    3ALA    HB2   23  12.922  10.409   7.296  0.6158  1.9743 -0.7671
    3ALA    HB3   24  13.073  10.394   7.374 -0.1224 -1.9179 -0.2933
    3ALA      C   25  12.792  10.523   7.522  0.2093  0.9226  0.0302
    3ALA      O   26  12.713  10.525   7.426  0.3275 -0.2710  0.0867
    4NME      N   27  12.751  10.540   7.650  0.0711 -0.2580  0.2995
    4NME      H   28  12.825  10.560   7.714 -0.9713 -0.0242  1.4676
    4NME    CH3   29  12.617  10.530   7.706  0.2934 -0.0473  0.0315
    4NME   HH31   30  12.631  10.474   7.798 -0.0965  0.7735  0.5984
    4NME   HH32   31  12.589  10.632   7.732  0.2483  0.5423 -2.0645
    4NME   HH33   32  12.539  10.492   7.639  0.2615  0.6910 -0.3642
  20.99041  20.99041  20.99041
