Protein
   42
    1ACE   HH31    1   6.029  13.993  13.448 -3.0363  1.6701  1.3446
    1ACE    CH3    2   5.982  13.926  13.377  0.2015 -0.0299  0.5882
    1ACE   HH32    3   6.026  13.827  13.379 -0.9421 -0.5545  0.6519
    1ACE   HH33    4   6.001  13.969  13.278 -1.0112  1.1056  0.8192
    1ACE      C    5   5.831  13.919  13.400 -0.0246  1.2276  0.6579
    1ACE      O    6   5.749  13.968  13.319  0.0697  0.0594 -0.1126
    2ALA      N    7   5.803  13.875  13.523  0.0014  1.0161  0.0061
    2ALA      H    8   5.881  13.834  13.572  2.5064  0.8135 -3.6622
    2ALA     CA    9   5.679  13.912  13.600 -0.0282  0.4026  0.6763
    2ALA     HA   10   5.608  13.966  13.539  0.1157 -1.4802 -1.2846
    2ALA     CB   11   5.615  13.777  13.645 -0.1643  0.0594  0.4176
    2ALA    HB1   12   5.622  13.715  13.556 -1.2860 -0.6745  0.8301
    2ALA    HB2   13   5.669  13.725  13.724  0.4169 -1.5816 -0.9894
    2ALA    HB3   14   5.514  13.797  13.679  0.2495  0.1711  1.6559
    2ALA      C   15   5.707  13.999  13.719 -0.8297 -0.9324  0.4821
    2ALA      O   16   5.801  13.961  13.792 -0.1612  0.0033 -0.1565
    3ALA      N   17   5.628  14.105  13.749 -0.1496  0.2145  0.5188
    3ALA      H   18   5.640  14.141  13.843 -2.5347  0.2001  0.8838
    3ALA     CA   19   5.543  14.192  13.676 -0.3384  0.7813 -0.2670
    3ALA     HA   20   5.445  14.144  13.676  0.2553 -0.4670 -0.1406
    3ALA     CB   21   5.531  14.319  13.752 -0.2400  0.1302  0.2269
    3ALA    HB1   22   5.454  14.372  13.697  0.0556 -0.8402 -1.1441
    3ALA    HB2   23   5.484  14.303  13.849 -1.2072 -0.2846 -0.3045
    3ALA    HB3   24   5.621  14.380  13.759  1.2695 -1.9569 -0.3027
    3ALA      C   25   5.590  14.218  13.536 -0.0713 -0.1847  0.5585
    3ALA      O   26   5.704  14.253  13.510 -0.5460  0.5771  0.5983
    4ALA      N   27   5.500  14.200  13.431 -0.3082 -0.6431 -0.6536
    4ALA      H   28   5.403  14.186  13.456 -0.1749  0.4089  0.5428
    4ALA     CA   29   5.520  14.244  13.294 -0.4970 -0.0753 -0.2554
    4ALA     HA   30   5.618  14.205  13.265  0.0810  1.1355  0.0109
    4ALA     CB   31   5.414  14.172  13.210 -0.0275 -0.3415 -0.6067
    4ALA    HB1   32   5.422  14.063  13.214  2.8201 -0.2256 -1.1397
    4ALA    HB2   33   5.315  14.192  13.251 -0.2829  0.0183 -1.3779
    4ALA    HB3   34   5.437  14.193  13.106  2.6631  2.2536  0.3657
    4ALA      C   35   5.528  14.402  13.283 -0.1374  0.0136 -0.4815
    4ALA      O   36   5.432  14.465  13.258  0.2495 -0.1034  0.0351
    5NME      N   37   5.654  14.452  13.298  0.4990  0.2650 -0.8276
    5NME      H   38   5.731  14.387  13.304  0.0547 -0.1761  0.4052
    5NME    CH3   39   5.689  14.588  13.272 -0.2065  0.3601 -0.3139
    5NME   HH31   40   5.788  14.605  13.315 -0.6577  0.6298  0.6394
    5NME   HH32   41   5.684  14.616  13.167 -0.9367  0.4138 -0.2665
    5NME   HH33   42   5.620  14.644  13.335 -0.1894 -0.4303  0.4222
  20.91516  20.91516  20.91516
