Protein
   42
    1ACE   HH31    1  10.137   3.867  15.346 -1.4251 -1.3024  0.4353
    1ACE    CH3    2  10.196   3.800  15.409 -0.2215  0.0340  0.7976
    1ACE   HH32    3  10.175   3.820  15.514  0.8964  0.1662  1.0075
    1ACE   HH33    4  10.304   3.807  15.401 -0.3274 -0.9477 -4.4507
    1ACE      C    5  10.150   3.663  15.372  0.3101  0.1150  0.0656
    1ACE      O    6  10.229   3.571  15.361 -0.3549 -0.0565 -0.0414
    2ALA      N    7  10.018   3.645  15.360  0.1603 -0.3129  1.2986
    2ALA      H    8   9.956   3.718  15.391 -1.4917  0.1686 -2.5880
    2ALA     CA    9   9.955   3.526  15.299  0.5126 -0.2389 -0.5469
    2ALA     HA   10   9.852   3.564  15.308 -0.2163 -1.9855 -1.1347
    2ALA     CB   11   9.997   3.503  15.158  0.1925  0.4489 -0.1809
    2ALA    HB1   12   9.944   3.422  15.110  2.4893 -1.4777  0.3478
    2ALA    HB2   13   9.978   3.595  15.103  3.1861  1.0097 -0.4497
    2ALA    HB3   14  10.099   3.466  15.166  0.1320  0.5775  1.6737
    2ALA      C   15   9.949   3.407  15.398  0.0216 -0.1223 -0.4171
    2ALA      O   16   9.848   3.342  15.403  1.1964  0.1170  0.4408
    3ALA      N   17  10.054   3.375  15.477 -0.3914 -0.6515 -0.1079
    3ALA      H   18  10.137   3.428  15.457 -0.0205 -1.2783 -0.2597
    3ALA     CA   19  10.067   3.256  15.559  0.6123 -0.4407 -0.2051
    3ALA     HA   20   9.988   3.257  15.634  0.1272 -0.2354 -0.7008
    3ALA     CB   21  10.042   3.130  15.481  0.1834  0.3123  0.3498
    3ALA    HB1   22  10.071   3.055  15.555 -0.1613  1.8076  2.0626
    3ALA    HB2   23   9.937   3.112  15.462  0.4195 -1.4613  0.5903
    3ALA    HB3   24  10.094   3.131  15.385 -1.1926  1.9997 -0.4424
    3ALA      C   25  10.199   3.246  15.644 -0.0299  0.1690 -0.1648
    3ALA      O   26  10.200   3.167  15.740 -0.3057  0.2603  0.0778
    4ALA      N   27  10.298   3.321  15.605 -0.0565  0.4856 -0.1563
    4ALA      H   28  10.275   3.397  15.543 -0.1209  0.4417 -0.1859
    4ALA     CA   29  10.430   3.331  15.668  0.3588  0.0351 -0.5755
    4ALA     HA   30  10.432   3.274  15.761 -0.4388  1.7588  0.5948
    4ALA     CB   31  10.523   3.253  15.574 -0.5284  0.7970 -0.6386
    4ALA    HB1   32  10.623   3.249  15.617 -0.8248  0.1871  0.0065
    4ALA    HB2   33  10.491   3.149  15.567 -0.5131  0.7454  0.0288
    4ALA    HB3   34  10.524   3.295  15.473 -0.0841  1.4229 -0.3862
    4ALA      C   35  10.470   3.481  15.696  0.6729  0.5668  0.0141
    4ALA      O   36  10.396   3.572  15.656 -0.3023 -1.0008 -0.7330
    5NME      N   37  10.585   3.496  15.767  0.2240  0.0074  0.1479
    5NME      H   38  10.639   3.420  15.805 -0.3877 -0.8803 -0.7226
    5NME    CH3   39  10.635   3.630  15.801  0.0400  0.3892  0.0540
    5NME   HH31   40  10.584   3.672  15.888  0.8913  1.3253  0.1144
    5NME   HH32   41  10.743   3.626  15.814  0.2672  0.5309 -1.4906
    5NME   HH33   42  10.619   3.700  15.719  2.6901  0.2614 -0.6735
  20.91516  20.91516  20.91516
