Protein
   42
    1ACE   HH31    1  13.049  11.346  13.380 -0.9357 -0.2528 -0.2715
    1ACE    CH3    2  13.073  11.356  13.486 -0.6985  0.1535 -0.3623
    1ACE   HH32    3  13.020  11.284  13.548 -2.4637  1.9843  0.3494
    1ACE   HH33    4  13.038  11.448  13.533 -0.8495  0.0685 -0.3052
    1ACE      C    5  13.224  11.340  13.514  0.0148  0.1986 -0.2193
    1ACE      O    6  13.269  11.243  13.579 -0.3037 -0.1462 -0.3115
    2ALA      N    7  13.302  11.430  13.452 -0.3505 -0.9376  0.6788
    2ALA      H    8  13.263  11.508  13.401  1.1682 -0.0693  0.7759
    2ALA     CA    9  13.447  11.412  13.442  0.2286 -0.4395 -0.5873
    2ALA     HA   10  13.468  11.343  13.524  2.0416  1.5371  0.7234
    2ALA     CB   11  13.479  11.342  13.311 -0.3412 -0.5752 -0.2886
    2ALA    HB1   12  13.408  11.264  13.285 -0.2917 -1.1568  1.2319
    2ALA    HB2   13  13.480  11.419  13.234 -0.1897 -0.1854  0.1005
    2ALA    HB3   14  13.577  11.302  13.336  0.5031  0.2120 -2.1333
    2ALA      C   15  13.528  11.548  13.476 -0.0955 -0.2684  0.9837
    2ALA      O   16  13.624  11.578  13.407  0.1128  0.1427 -0.1644
    3ALA      N   17  13.484  11.638  13.567 -0.3486 -0.7223 -0.5563
    3ALA      H   18  13.529  11.726  13.550  0.0748 -1.0405 -1.1149
    3ALA     CA   19  13.399  11.630  13.683  0.3551  0.0407  0.0147
    3ALA     HA   20  13.442  11.697  13.757 -0.2942 -0.1900  0.6121
    3ALA     CB   21  13.254  11.680  13.639 -0.0566  0.3251  0.1475
    3ALA    HB1   22  13.201  11.719  13.726  2.6247 -0.8055  2.4398
    3ALA    HB2   23  13.277  11.774  13.588  0.9614  0.9334  1.6782
    3ALA    HB3   24  13.201  11.611  13.573  1.5149 -1.7704  0.9450
    3ALA      C   25  13.395  11.491  13.752  0.1298 -0.6362 -0.6451
    3ALA      O   26  13.295  11.456  13.807 -0.0284 -0.1502 -0.0640
    4ALA      N   27  13.511  11.424  13.748 -0.3483  0.1799  0.1521
    4ALA      H   28  13.592  11.479  13.724  1.4087 -1.8714  1.1579
    4ALA     CA   29  13.552  11.290  13.800  0.0084 -0.0844  0.0162
    4ALA     HA   30  13.581  11.233  13.712 -0.4344  0.0615 -0.2254
    4ALA     CB   31  13.684  11.310  13.874  0.1655 -0.5430  0.5641
    4ALA    HB1   32  13.654  11.351  13.971  0.2282 -2.7060  1.5412
    4ALA    HB2   33  13.734  11.213  13.880 -1.7271 -1.5991  0.0583
    4ALA    HB3   34  13.743  11.386  13.823  1.1534 -2.9848 -2.1581
    4ALA      C   35  13.452  11.212  13.887  0.3866  0.3300  0.3060
    4ALA      O   36  13.455  11.212  14.007 -0.4539  0.2155 -0.0369
    5NME      N   37  13.362  11.144  13.819  0.4097 -0.2556 -0.1096
    5NME      H   38  13.359  11.154  13.719 -0.8863  0.1696 -0.0323
    5NME    CH3   39  13.238  11.106  13.878 -0.7748 -0.0305  0.0032
    5NME   HH31   40  13.182  11.053  13.801 -1.2159 -0.3478  0.5406
    5NME   HH32   41  13.261  11.041  13.962 -1.0064 -0.5098 -0.3068
    5NME   HH33   42  13.180  11.192  13.912 -2.6807 -1.7702  1.3185
  20.91516  20.91516  20.91516
