Protein
   42
    1ACE   HH31    1  10.498  11.211  10.157 -0.3888  0.5824 -0.7365
    1ACE    CH3    2  10.561  11.298  10.178 -0.2477  0.2582  0.2416
    1ACE   HH32    3  10.619  11.293  10.270  0.0205  3.3617  0.3204
    1ACE   HH33    4  10.489  11.379  10.189 -0.8200 -0.1286 -0.5645
    1ACE      C    5  10.642  11.325  10.055 -0.2910  0.1648 -0.0692
    1ACE      O    6  10.765  11.335  10.076 -0.2723 -0.1685 -0.0284
    2ALA      N    7  10.583  11.329   9.934 -0.0684 -0.9192 -0.4167
    2ALA      H    8  10.482  11.323   9.939 -0.1602 -0.3428 -1.2230
    2ALA     CA    9  10.655  11.351   9.804  0.6203 -0.0514  0.6465
    2ALA     HA   10  10.738  11.414   9.836  2.4688 -1.0125 -1.8205
    2ALA     CB   11  10.721  11.218   9.761 -0.0251 -0.7132  0.6107
    2ALA    HB1   12  10.644  11.149   9.728 -1.2120  1.0286 -0.3644
    2ALA    HB2   13  10.786  11.243   9.677 -1.1849  1.4364  0.2834
    2ALA    HB3   14  10.773  11.184   9.851 -0.4226  1.1711  1.6110
    2ALA      C   15  10.570  11.413   9.690  0.1221  0.5950 -0.0509
    2ALA      O   16  10.601  11.395   9.575  0.4163 -0.8353 -0.4015
    3ALA      N   17  10.471  11.498   9.708  0.3640  0.0795 -0.0381
    3ALA      H   18  10.434  11.520   9.616 -1.5745 -0.3400  0.5871
    3ALA     CA   19  10.387  11.542   9.825  0.1707  0.3795 -0.0118
    3ALA     HA   20  10.459  11.553   9.906 -0.7372 -1.3034  1.0798
    3ALA     CB   21  10.340  11.677   9.787  0.4252 -0.4394 -0.0069
    3ALA    HB1   22  10.414  11.738   9.736  1.3733 -0.6232  1.1010
    3ALA    HB2   23  10.266  11.663   9.709 -0.5645 -1.5370  1.1027
    3ALA    HB3   24  10.297  11.718   9.878 -1.0381  2.2802 -1.7915
    3ALA      C   25  10.284  11.431   9.858 -0.2688 -0.0075  0.3452
    3ALA      O   26  10.301  11.363   9.959  0.3720 -0.1010 -0.2437
    4ALA      N   27  10.188  11.403   9.769 -0.4964  0.4240 -0.0937
    4ALA      H   28  10.173  11.454   9.683 -3.5364 -1.1727 -0.6671
    4ALA     CA   29  10.097  11.288   9.789  0.0811  0.7144  0.9074
    4ALA     HA   30  10.147  11.192   9.801 -1.8497 -0.3786  0.6179
    4ALA     CB   31  10.004  11.324   9.907  0.2149 -0.8525 -0.0877
    4ALA    HB1   32  10.059  11.317  10.001 -0.5702  0.3132  0.4768
    4ALA    HB2   33   9.953  11.419   9.895  1.2809 -0.1622  0.5352
    4ALA    HB3   34   9.922  11.252   9.916 -0.8192  0.1191 -1.3245
    4ALA      C   35  10.005  11.269   9.664  0.3876  0.3399 -0.4552
    4ALA      O   36   9.982  11.371   9.596 -0.6036  0.6558 -0.4934
    5NME      N   37   9.957  11.146   9.646  0.4067  0.1509 -0.0162
    5NME      H   38   9.994  11.067   9.697  2.0123  1.5770  1.1377
    5NME    CH3   39   9.852  11.118   9.548  0.0602  0.6077  0.4463
    5NME   HH31   40   9.806  11.025   9.581 -1.2044  0.3392 -1.8316
    5NME   HH32   41   9.775  11.195   9.555  0.9308  1.5152  0.2080
    5NME   HH33   42   9.900  11.118   9.450 -1.1500  1.1411 -0.1632
  20.91516  20.91516  20.91516
