Protein
   42
    1ACE   HH31    1  15.259  10.202   5.235 -0.8919  0.6216  2.1464
    1ACE    CH3    2  15.166  10.148   5.214  0.1954 -0.7134  0.4446
    1ACE   HH32    3  15.182  10.061   5.150 -1.2720 -1.0798  0.5309
    1ACE   HH33    4  15.098  10.214   5.160 -1.2878 -0.7997  2.1179
    1ACE      C    5  15.109  10.116   5.349  0.1904 -0.3624  0.3596
    1ACE      O    6  15.136  10.011   5.411 -0.3057 -0.2371  0.3029
    2ALA      N    7  15.024  10.209   5.395 -0.1778 -0.4086 -0.3776
    2ALA      H    8  15.006  10.288   5.335  0.9372  1.1181  1.1726
    2ALA     CA    9  14.950  10.197   5.517 -0.3118 -0.0804  0.2557
    2ALA     HA   10  14.961  10.091   5.541  1.6668  0.0309 -0.0356
    2ALA     CB   11  15.003  10.280   5.630 -0.4612 -0.1218 -0.2271
    2ALA    HB1   12  15.109  10.266   5.649 -0.0428  2.2956 -0.5207
    2ALA    HB2   13  14.982  10.385   5.611 -2.7080 -0.3684  0.5784
    2ALA    HB3   14  14.947  10.263   5.722 -0.8713  0.7578 -0.2991
    2ALA      C   15  14.800  10.226   5.492 -0.2207  0.2648  0.5050
    2ALA      O   16  14.765  10.311   5.414 -0.5770  0.3016 -0.1294
    3ALA      N   17  14.701  10.143   5.537  0.2739  1.1586 -0.0131
    3ALA      H   18  14.606  10.162   5.510 -0.3183  0.1748  1.3501
    3ALA     CA   19  14.716  10.017   5.612  0.0614 -0.3137 -0.0916
    3ALA     HA   20  14.812  10.016   5.663 -0.3179  0.8355  0.6707
    3ALA     CB   21  14.612  10.009   5.720 -0.1591 -0.0489 -0.3092
    3ALA    HB1   22  14.512  10.029   5.680 -0.4508 -0.4678  0.1880
    3ALA    HB2   23  14.612   9.903   5.747 -2.1156  0.0052  0.0629
    3ALA    HB3   24  14.634  10.079   5.801  1.4541 -2.2418  1.2666
    3ALA      C   25  14.710   9.894   5.516 -0.5031  0.5627 -0.3859
    3ALA      O   26  14.601   9.842   5.490 -0.4185 -0.5637 -0.2767
    4ALA      N   27  14.824   9.854   5.461 -0.0503 -0.5548  0.0623
    4ALA      H   28  14.904   9.906   5.493  0.6556 -0.2401 -2.1006
    4ALA     CA   29  14.848   9.730   5.392 -0.6068 -0.2072 -0.2392
    4ALA     HA   30  14.771   9.716   5.315  0.5097 -3.6564 -0.9091
    4ALA     CB   31  14.977   9.732   5.308 -0.2123 -0.1075 -0.0403
    4ALA    HB1   32  14.958   9.816   5.241 -1.4309 -0.3099  0.0368
    4ALA    HB2   33  15.054   9.772   5.374  0.2023  2.4653 -1.9380
    4ALA    HB3   34  14.999   9.645   5.247 -1.3964 -0.7819  0.4619
    4ALA      C   35  14.828   9.609   5.477 -0.5296  0.7516 -0.2280
    4ALA      O   36  14.844   9.615   5.599 -0.2518  0.0313 -0.0250
    5NME      N   37  14.828   9.490   5.419  0.4503  0.5196  0.4517
    5NME      H   38  14.831   9.481   5.318 -0.7972 -2.3867  0.5874
    5NME    CH3   39  14.847   9.363   5.494 -0.2793 -0.2961 -0.1769
    5NME   HH31   40  14.945   9.382   5.539 -0.8568  3.2084 -0.0913
    5NME   HH32   41  14.769   9.358   5.570 -1.5537 -0.9514 -1.4652
    5NME   HH33   42  14.845   9.277   5.428  2.1512  0.2423 -1.0486
  20.91516  20.91516  20.91516
