Protein
   32
    1ACE   HH31    1  10.570   6.973  10.527 -1.6109  1.1154  0.5145
    1ACE    CH3    2  10.558   6.874  10.481  0.6255  1.0813 -0.1382
    1ACE   HH32    3  10.653   6.821  10.478  0.0028 -0.0171 -0.7524
    1ACE   HH33    4  10.513   6.895  10.384 -0.9629  0.2180  0.3598
    1ACE      C    5  10.465   6.786  10.567 -0.1643  0.4109  0.0159
    1ACE      O    6  10.386   6.844  10.641  0.2761  0.0045 -0.3963
    2ALA      N    7  10.484   6.653  10.555  0.0758 -0.3473  0.6355
    2ALA      H    8  10.561   6.619  10.498 -0.9502 -1.1975 -0.2940
    2ALA     CA    9  10.428   6.552  10.638 -0.7225  0.2122 -0.2541
    2ALA     HA   10  10.325   6.535  10.608 -0.4211 -0.6867 -0.8336
    2ALA     CB   11  10.498   6.420  10.633  0.7082 -0.8472  0.0892
    2ALA    HB1   12  10.596   6.409  10.679  1.3826  3.7269  0.1783
    2ALA    HB2   13  10.434   6.344  10.678 -0.5297  0.4046  0.5216
    2ALA    HB3   14  10.498   6.382  10.531 -0.6324  0.0753 -0.2773
    2ALA      C   15  10.415   6.606  10.788 -0.1794 -0.0656 -1.2919
    2ALA      O   16  10.524   6.640  10.844 -0.4696  0.2146 -0.1614
    3ALA      N   17  10.299   6.608  10.855 -0.5441  1.2021 -0.9195
    3ALA      H   18  10.221   6.562  10.810  1.4329 -0.9922 -2.3649
    3ALA     CA   19  10.272   6.666  10.991 -0.0057  0.6524  0.1308
    3ALA     HA   20  10.369   6.678  11.041 -0.1255  1.5283  0.1613
    3ALA     CB   21  10.212   6.807  10.967 -0.2287 -0.5710  0.3816
    3ALA    HB1   22  10.134   6.815  10.892 -1.4182  1.2286  1.7425
    3ALA    HB2   23  10.168   6.849  11.057 -4.5159 -0.7948 -1.4083
    3ALA    HB3   24  10.290   6.868  10.922 -0.0901 -0.1891  1.1126
    3ALA      C   25  10.198   6.562  11.080  0.1866 -0.2675  0.3822
    3ALA      O   26  10.142   6.466  11.026 -0.4143  0.5014  0.0115
    4NME      N   27  10.182   6.590  11.207  0.2281 -0.1192  0.0449
    4NME      H   28  10.234   6.666  11.248  0.5056 -0.7824  0.9385
    4NME    CH3   29  10.096   6.504  11.298 -0.2835  0.1252  0.1301
    4NME   HH31   30  10.093   6.546  11.398  0.3730  1.7869 -0.5177
    4NME   HH32   31   9.998   6.491  11.253  0.5272 -1.4927 -1.3008
    4NME   HH33   32  10.145   6.407  11.308 -1.6620 -0.5838  0.1987
  20.99041  20.99041  20.99041
