Protein
   42
    1ACE   HH31    1  14.627  11.763  12.030 -0.3182  0.5488 -0.7279
    1ACE    CH3    2  14.607  11.737  11.926  0.0694 -0.2779 -0.6124
    1ACE   HH32    3  14.652  11.811  11.859  1.0787 -0.9964 -0.7380
    1ACE   HH33    4  14.499  11.740  11.911  0.0441 -0.1382 -0.4186
    1ACE      C    5  14.684  11.605  11.895  0.2215 -0.2727 -0.3875
    1ACE      O    6  14.797  11.622  11.852 -0.0334  0.2673 -0.0834
    2ALA      N    7  14.632  11.489  11.924  0.1726  0.2409 -0.4999
    2ALA      H    8  14.535  11.489  11.951 -0.0670  0.6872 -1.3336
    2ALA     CA    9  14.692  11.361  11.898  0.0901  0.1085  0.0587
    2ALA     HA   10  14.638  11.287  11.958 -1.5371  1.3449  0.1596
    2ALA     CB   11  14.669  11.317  11.752  0.2666 -0.4295  0.3390
    2ALA    HB1   12  14.727  11.227  11.733 -0.2633 -1.1076  1.7230
    2ALA    HB2   13  14.564  11.296  11.733 -0.0123  1.6759 -0.7090
    2ALA    HB3   14  14.724  11.391  11.694  1.9473 -0.1781  2.1134
    2ALA      C   15  14.844  11.349  11.945  0.0502 -0.4876  0.1655
    2ALA      O   16  14.867  11.332  12.065 -0.2619  0.1739 -0.0888
    3ALA      N   17  14.936  11.366  11.847 -0.1952  0.3693  0.4252
    3ALA      H   18  14.902  11.404  11.760  1.7329 -1.2750 -1.1578
    3ALA     CA   19  15.085  11.374  11.860 -0.0330 -0.4845  0.3336
    3ALA     HA   20  15.111  11.269  11.847 -0.1980 -0.6218  1.0853
    3ALA     CB   21  15.139  11.454  11.738  0.0457  0.5038  0.1262
    3ALA    HB1   22  15.077  11.433  11.650  0.8005  0.2591 -0.3689
    3ALA    HB2   23  15.127  11.561  11.752  0.4982  0.6241 -0.3523
    3ALA    HB3   24  15.244  11.431  11.717 -0.7490  0.1416 -4.6987
    3ALA      C   25  15.156  11.421  11.993  0.2118  0.0195  1.1946
    3ALA      O   26  15.264  11.379  12.031 -0.4388  1.0904 -0.3422
    4ALA      N   27  15.094  11.521  12.057 -0.2377 -0.7520 -0.6516
    4ALA      H   28  15.002  11.543  12.022 -0.3755 -0.4513 -0.1056
    4ALA     CA   29  15.140  11.581  12.190 -0.3855 -0.0372  0.0392
    4ALA     HA   30  15.238  11.626  12.181 -1.4596  2.5965  0.5896
    4ALA     CB   31  15.058  11.692  12.225 -0.4401  0.1762  0.0926
    4ALA    HB1   32  15.071  11.767  12.147  0.8609  1.2353  1.2825
    4ALA    HB2   33  14.953  11.667  12.238 -0.5575  0.6234  0.0405
    4ALA    HB3   34  15.096  11.729  12.320 -1.1652 -2.6299  1.5784
    4ALA      C   35  15.155  11.470  12.305 -0.0492 -0.1620  0.9486
    4ALA      O   36  15.221  11.494  12.409 -0.0973  0.1673  0.1733
    5NME      N   37  15.069  11.365  12.301 -0.3504 -0.1029  0.3007
    5NME      H   38  15.003  11.357  12.224  0.3251 -1.7980 -0.1508
    5NME    CH3   39  15.092  11.252  12.385 -0.0461  0.4258  0.9347
    5NME   HH31   40  15.198  11.240  12.402  0.1093  0.1707 -0.1263
    5NME   HH32   41  15.058  11.273  12.486  0.5298 -1.8172  1.6133
    5NME   HH33   42  15.040  11.163  12.350  0.4366  0.1811  0.8464
  20.91516  20.91516  20.91516
