Protein
   42
    1ACE   HH31    1   7.136   6.338   3.947 -0.3108  2.2441 -0.4078
    1ACE    CH3    2   7.049   6.333   4.013 -0.0254 -0.0521 -0.1765
    1ACE   HH32    3   6.959   6.312   3.955 -1.7684 -0.5524  2.4917
    1ACE   HH33    4   7.044   6.428   4.065  4.0833 -0.4048  1.2370
    1ACE      C    5   7.063   6.224   4.117 -0.1507 -0.1337  0.3878
    1ACE      O    6   6.969   6.147   4.122 -0.3006 -0.1439  0.0981
    2ALA      N    7   7.173   6.225   4.183  0.7890 -0.2342  0.3485
    2ALA      H    8   7.223   6.312   4.173  0.4101 -0.2826 -2.6085
    2ALA     CA    9   7.195   6.151   4.307 -0.7126  0.1790  0.3411
    2ALA     HA   10   7.099   6.108   4.335  0.0761 -1.8025  0.1003
    2ALA     CB   11   7.293   6.032   4.287 -0.5991  0.2327 -0.6560
    2ALA    HB1   12   7.278   5.979   4.193 -0.2766 -1.0009 -0.0335
    2ALA    HB2   13   7.395   6.071   4.288 -0.2881 -0.3889  2.6785
    2ALA    HB3   14   7.296   5.970   4.377  0.2914  2.2447  0.7764
    2ALA      C   15   7.245   6.257   4.412  0.9077 -0.1551 -0.4626
    2ALA      O   16   7.224   6.378   4.393 -0.4213  0.0613  0.1232
    3ALA      N   17   7.287   6.208   4.528  0.7381  0.0163  0.5687
    3ALA      H   18   7.296   6.108   4.533  0.9624 -0.0745 -1.0490
    3ALA     CA   19   7.329   6.276   4.649 -0.2831  0.0212  0.5825
    3ALA     HA   20   7.352   6.382   4.637  1.8623 -0.0429  3.2250
    3ALA     CB   21   7.221   6.270   4.757 -0.3597 -0.0877  0.2899
    3ALA    HB1   22   7.126   6.287   4.706  0.0721 -2.3414 -1.3954
    3ALA    HB2   23   7.227   6.173   4.805 -0.2448 -0.1008  0.2569
    3ALA    HB3   24   7.257   6.347   4.826  2.5636 -0.2581 -0.8839
    3ALA      C   25   7.464   6.220   4.698  0.1908  0.0135 -0.4332
    3ALA      O   26   7.509   6.119   4.645  0.4540 -0.6128 -0.7843
    4ALA      N   27   7.525   6.285   4.798  0.5423 -0.2199 -0.6422
    4ALA      H   28   7.476   6.368   4.828  0.7316 -0.2130 -0.3453
    4ALA     CA   29   7.648   6.265   4.877  0.1580  0.2029  0.3578
    4ALA     HA   30   7.679   6.364   4.910  0.9805 -0.0483  0.3798
    4ALA     CB   31   7.611   6.195   5.013  0.4531 -0.1827  0.4906
    4ALA    HB1   32   7.527   6.247   5.058 -0.2799 -0.3293 -0.6561
    4ALA    HB2   33   7.579   6.093   4.992  3.3533 -1.0736 -0.0937
    4ALA    HB3   34   7.695   6.192   5.082  3.0501  2.2067 -2.2453
    4ALA      C   35   7.773   6.214   4.802 -0.4309 -0.0966  0.6243
    4ALA      O   36   7.879   6.269   4.845 -0.4149 -0.1588  0.3134
    5NME      N   37   7.772   6.146   4.686  0.4101 -0.1076  0.1003
    5NME      H   38   7.685   6.106   4.655  0.4321  0.9222 -1.3697
    5NME    CH3   39   7.895   6.104   4.621  0.1397 -0.7130  0.3920
    5NME   HH31   40   7.880   6.004   4.580 -0.0933 -0.2225 -0.7407
    5NME   HH32   41   7.929   6.182   4.553 -1.2223 -1.8624 -1.7127
    5NME   HH33   42   7.975   6.098   4.695  0.1168 -1.2523  0.3748
  20.91516  20.91516  20.91516
