Protein
   32
    1ACE   HH31    1   9.077  11.090  10.736 -1.4734  0.4323 -0.2929
    1ACE    CH3    2   9.129  11.181  10.764 -0.8027  0.0904 -0.3935
    1ACE   HH32    3   9.238  11.177  10.758 -0.7779 -0.8602  0.3847
    1ACE   HH33    4   9.105  11.205  10.868 -1.0819 -0.5922 -0.2929
    1ACE      C    5   9.093  11.289  10.672  0.3853 -0.3047  0.5552
    1ACE      O    6   9.088  11.272  10.550  0.0093  0.2937 -0.8177
    2ALA      N    7   9.067  11.409  10.732 -0.3074  0.9592  0.2769
    2ALA      H    8   9.055  11.414  10.832 -1.6675  1.4706  0.1106
    2ALA     CA    9   9.036  11.540  10.664  0.3190 -0.6159 -0.2482
    2ALA     HA   10   9.005  11.608  10.743 -0.6819 -0.3676 -0.8334
    2ALA     CB   11   9.167  11.590  10.592 -0.1973  0.0985 -0.5329
    2ALA    HB1   12   9.251  11.573  10.659 -1.7395 -2.7570  0.8884
    2ALA    HB2   13   9.183  11.532  10.501  1.3646  0.2055 -0.3566
    2ALA    HB3   14   9.154  11.697  10.575  1.2209  0.7940  2.3486
    2ALA      C   15   8.915  11.543  10.566 -0.1950 -1.1437 -0.1497
    2ALA      O   16   8.845  11.643  10.565 -0.1209  0.1786 -0.0840
    3ALA      N   17   8.901  11.444  10.482  0.4007 -0.1882  0.1132
    3ALA      H   18   8.968  11.368  10.482 -0.7342 -1.2223  1.2272
    3ALA     CA   19   8.781  11.443  10.391  0.3092  0.1706 -0.1489
    3ALA     HA   20   8.783  11.520  10.314 -0.6078  0.1830 -0.1823
    3ALA     CB   21   8.791  11.301  10.323 -0.8347 -1.1473 -0.5730
    3ALA    HB1   22   8.881  11.307  10.262 -0.5649  3.6454 -0.1230
    3ALA    HB2   23   8.795  11.228  10.403 -1.4211  1.8960  2.4644
    3ALA    HB3   24   8.708  11.298  10.252 -0.6825 -1.7959 -0.7279
    3ALA      C   25   8.647  11.451  10.466 -0.2852 -0.4660 -0.2001
    3ALA      O   26   8.616  11.382  10.567  0.6933  0.3620  0.2914
    4NME      N   27   8.560  11.539  10.407  0.2198 -0.0851 -0.1274
    4NME      H   28   8.595  11.614  10.350 -2.1675  2.1015  1.0675
    4NME    CH3   29   8.421  11.555  10.453  0.0832  0.4615  0.0088
    4NME   HH31   30   8.415  11.648  10.510 -0.4217  0.5387 -0.1581
    4NME   HH32   31   8.353  11.560  10.368  0.2924  1.4960 -0.1132
    4NME   HH33   32   8.394  11.471  10.518  1.1647  0.2161  0.1576
  20.99041  20.99041  20.99041
