Protein
   42
    1ACE   HH31    1  12.201  15.800  10.687 -3.3317 -1.1481  0.0394
    1ACE    CH3    2  12.184  15.865  10.773  0.1123  0.1042 -0.0690
    1ACE   HH32    3  12.079  15.883  10.797  0.4430  0.0769  1.5067
    1ACE   HH33    4  12.221  15.966  10.758 -0.6196  0.4650  0.5086
    1ACE      C    5  12.264  15.813  10.886  0.4224  1.0384  0.2491
    1ACE      O    6  12.350  15.883  10.938  0.2840 -0.1558  0.3205
    2ALA      N    7  12.235  15.688  10.934 -0.0671 -0.0983  0.0822
    2ALA      H    8  12.151  15.652  10.890  1.8332 -2.0978 -2.1343
    2ALA     CA    9  12.294  15.606  11.036 -0.1515 -0.5908 -0.5028
    2ALA     HA   10  12.270  15.662  11.127 -0.1760  0.6544 -1.2400
    2ALA     CB   11  12.208  15.479  11.045  0.7053  0.0209 -0.0099
    2ALA    HB1   12  12.208  15.432  10.946 -0.2488  0.2408 -0.1189
    2ALA    HB2   13  12.253  15.407  11.112 -0.3481 -0.8850 -0.2720
    2ALA    HB3   14  12.107  15.500  11.080  1.6405  1.0536  2.2564
    2ALA      C   15  12.450  15.579  11.028 -0.0382 -0.3849 -0.2872
    2ALA      O   16  12.495  15.478  11.071 -0.2319  0.0651  0.6292
    3ALA      N   17  12.525  15.678  10.972  0.2729  0.0897 -0.0289
    3ALA      H   18  12.479  15.765  10.949  0.6853  0.5260  0.7619
    3ALA     CA   19  12.671  15.675  10.939  0.4138 -0.7233 -0.2355
    3ALA     HA   20  12.723  15.723  11.022 -1.2925 -0.4570  0.7354
    3ALA     CB   21  12.734  15.534  10.922  0.1023 -0.2419  0.5830
    3ALA    HB1   22  12.679  15.477  10.847 -0.6665  0.5000  0.5597
    3ALA    HB2   23  12.834  15.538  10.879 -0.4996 -2.8051 -1.2550
    3ALA    HB3   24  12.736  15.482  11.017 -1.2202  0.7622  1.2004
    3ALA      C   25  12.701  15.760  10.809  0.0236  0.1023 -0.8605
    3ALA      O   26  12.816  15.801  10.791 -0.2108  0.3427  0.5578
    4ALA      N   27  12.598  15.780  10.721  0.3425 -0.5744  0.1938
    4ALA      H   28  12.508  15.744  10.748  0.2697 -0.0885  0.6039
    4ALA     CA   29  12.609  15.863  10.602  0.5694 -0.3961 -0.3135
    4ALA     HA   30  12.705  15.851  10.552 -0.9348  0.8684 -3.7988
    4ALA     CB   31  12.506  15.805  10.500  0.2576  0.1616 -0.6733
    4ALA    HB1   32  12.522  15.698  10.483  0.9610  0.0806  0.4013
    4ALA    HB2   33  12.402  15.820  10.526 -0.0150 -0.2604 -1.4918
    4ALA    HB3   34  12.513  15.857  10.404  0.4094 -0.4712 -1.0140
    4ALA      C   35  12.595  16.011  10.642 -0.9803 -0.0232  0.1623
    4ALA      O   36  12.516  16.079  10.582 -0.6384  0.1427  0.2289
    5NME      N   37  12.665  16.059  10.746  0.1660 -0.0671  1.1906
    5NME      H   38  12.731  15.995  10.788  0.5161  0.1650  0.9927
    5NME    CH3   39  12.634  16.192  10.800 -0.0052  0.0870 -0.0994
    5NME   HH31   40  12.528  16.195  10.827  0.0372 -0.8221  0.2157
    5NME   HH32   41  12.693  16.221  10.887 -0.5129  0.6714  0.0577
    5NME   HH33   42  12.638  16.267  10.721 -1.6639  1.6091  1.1951
  20.91516  20.91516  20.91516
