Protein
   32
    1ACE   HH31    1  10.049   7.514  14.080 -2.0118 -1.7532 -1.7387
    1ACE    CH3    2  10.019   7.599  14.020  0.2868  0.4679  0.0430
    1ACE   HH32    3   9.929   7.560  13.971  0.0363 -1.3074  1.7802
    1ACE   HH33    4  10.098   7.627  13.950  0.6812  1.8672  1.0046
    1ACE      C    5   9.973   7.714  14.103 -0.2608  0.0738  0.2706
    1ACE      O    6   9.856   7.717  14.151  0.3369  0.3689  0.0689
    2ALA      N    7  10.063   7.804  14.137  0.2067  0.1585 -0.6307
    2ALA      H    8  10.151   7.817  14.088  2.7360 -1.3138  3.0884
    2ALA     CA    9  10.052   7.895  14.257  0.5623  0.1753  0.6405
    2ALA     HA   10   9.981   7.847  14.324 -0.3889  1.2495  0.4330
    2ALA     CB   11  10.187   7.917  14.316  0.3372  0.2689  0.2897
    2ALA    HB1   12  10.162   7.978  14.403  0.2743  2.7357 -1.3843
    2ALA    HB2   13  10.222   7.817  14.342  0.8221  0.6627  1.1807
    2ALA    HB3   14  10.269   7.954  14.255  3.2280 -3.1083  1.7914
    2ALA      C   15   9.984   8.028  14.205 -0.0698  0.0033  0.1465
    2ALA      O   16  10.042   8.139  14.210  0.4875  0.4027 -0.9448
    3ALA      N   17   9.856   8.009  14.166  0.1119 -0.5863 -0.0032
    3ALA      H   18   9.824   7.914  14.164 -4.4790  0.6841  0.4058
    3ALA     CA   19   9.756   8.111  14.139 -0.4382 -0.2944  0.0232
    3ALA     HA   20   9.745   8.171  14.230  3.2054 -1.6725  1.5397
    3ALA     CB   21   9.812   8.199  14.026 -0.4417 -0.5946 -0.1689
    3ALA    HB1   22   9.750   8.288  14.010 -0.5217 -0.1618  2.1626
    3ALA    HB2   23   9.914   8.230  14.048 -0.5136 -0.4212 -0.0612
    3ALA    HB3   24   9.809   8.138  13.936  0.3569  0.6730 -1.0882
    3ALA      C   25   9.627   8.041  14.092 -0.0698  0.3468 -0.7464
    3ALA      O   26   9.531   8.102  14.059 -0.1769  0.3797  0.0038
    4NME      N   27   9.605   7.904  14.104 -0.6147  0.2793  0.2537
    4NME      H   28   9.685   7.843  14.110 -0.1313  0.8381 -0.3563
    4NME    CH3   29   9.475   7.841  14.058 -0.1871 -0.4691  0.0034
    4NME   HH31   30   9.389   7.896  14.099 -0.4131 -2.2113  2.0702
    4NME   HH32   31   9.468   7.850  13.950 -0.1179 -0.8493 -0.0351
    4NME   HH33   32   9.458   7.739  14.093 -3.4336  0.4440  1.5281
  20.99041  20.99041  20.99041
