Title
  129
    1AIB    CAY    1  17.773  21.206  20.388 -1.2919 -0.2186  0.0427
    1AIB    HY1    2  17.772  21.228  20.279  1.6678 -0.5081 -0.1089
    1AIB    HY2    3  17.764  21.305  20.438  0.9999  0.9962 -1.7281
    1AIB    HY3    4  17.690  21.137  20.414  0.0882 -1.7663  0.5108
    1AIB     CY    5  17.899  21.146  20.431 -0.9128  0.1517 -0.1531
    1AIB     OY    6  17.904  21.077  20.531  0.3297  0.2169 -0.1841
    1AIB      N    7  18.008  21.168  20.356 -0.2514 -0.3887 -0.4246
    1AIB     HN    8  17.995  21.225  20.275 -1.7337  2.0272  1.4082
    1AIB     CA    9  18.142  21.127  20.383  0.1019 -0.5897  0.6546
    1AIB    CB1   10  18.236  21.210  20.294  0.2665  0.7506  0.5738
    1AIB   HB11   11  18.205  21.193  20.188  2.2952  0.3633 -0.0112
    1AIB   HB12   12  18.340  21.170  20.301  0.2102  0.4767 -0.0790
    1AIB   HB13   13  18.244  21.318  20.316  4.9022  0.3007  2.0704
    1AIB    CB2   14  18.154  20.985  20.328 -0.0029 -0.6272  0.0069
    1AIB   HB21   15  18.096  20.919  20.396  1.4694 -1.9021  0.0697
    1AIB   HB22   16  18.258  20.947  20.323  0.1081 -0.6288  1.8709
    1AIB   HB23   17  18.109  20.973  20.227  0.4830 -1.0057 -0.1676
    1AIB      C   18  18.190  21.141  20.533 -0.3870  0.0686  0.2381
    1AIB      O   19  18.252  21.051  20.588  0.1436  0.2272  0.2752
    2AIB      N   20  18.163  21.251  20.602  0.2764  0.1496 -0.3357
    2AIB     HN   21  18.097  21.313  20.560  0.3566 -0.1418 -0.8928
    2AIB     CA   22  18.204  21.291  20.741  1.0709  0.2066  0.2468
    2AIB    CB1   23  18.112  21.407  20.791  0.1918  0.4905 -0.1917
    2AIB   HB11   24  18.121  21.497  20.727  1.4770 -0.8911 -2.0815
    2AIB   HB12   25  18.131  21.442  20.894 -2.1581 -0.9867  0.8375
    2AIB   HB13   26  18.004  21.384  20.790  0.3411 -0.2867 -0.7128
    2AIB    CB2   27  18.346  21.347  20.730 -0.6238  0.1793 -0.0768
    2AIB   HB21   28  18.355  21.423  20.650  0.6622  1.3427  1.1102
    2AIB   HB22   29  18.420  21.269  20.701  1.7424  1.6948  1.6051
    2AIB   HB23   30  18.382  21.398  20.822  1.6326  1.7338 -1.6973
    2AIB      C   31  18.185  21.177  20.840  0.7929  0.4633  0.0158
    2AIB      O   32  18.280  21.144  20.904 -0.0985  0.4516  0.6403
    3AIB      N   33  18.068  21.116  20.846  0.7091  0.1030  0.1864
    3AIB     HN   34  17.989  21.154  20.797  0.9510  2.0503  1.2167
    3AIB     CA   35  18.041  21.013  20.948  0.1782  0.6372  0.2910
    3AIB    CB1   36  17.906  20.949  20.908 -0.0126 -0.4855  0.4079
    3AIB   HB11   37  17.877  20.868  20.979 -0.5485 -0.1638  0.5655
    3AIB   HB12   38  17.912  20.908  20.806  1.1814 -2.0170  1.0751
    3AIB   HB13   39  17.824  21.025  20.905 -1.2051 -1.7818 -0.7378
    3AIB    CB2   40  18.030  21.075  21.087  0.2716  0.4042 -0.4935
    3AIB   HB21   41  18.122  21.132  21.110 -0.2546  2.8034 -3.7782
    3AIB   HB22   42  18.004  21.008  21.171  2.1314 -1.7991 -1.5454
    3AIB   HB23   43  17.951  21.152  21.072  0.3368 -0.0181 -3.6688
    3AIB      C   44  18.141  20.891  20.929  0.3189 -0.6204  0.4441
    3AIB      O   45  18.186  20.831  21.028 -0.7790  0.6061  0.3834
    4AIB      N   46  18.166  20.852  20.801  0.3297 -0.6109 -0.3867
    4AIB     HN   47  18.149  20.922  20.732 -1.7525 -0.0009  0.6785
    4AIB     CA   48  18.225  20.725  20.767 -0.4944 -0.4784  0.0629
    4AIB    CB1   49  18.198  20.709  20.615  0.6027 -0.1154  0.1774
    4AIB   HB11   50  18.227  20.612  20.568 -1.1883  0.2592 -1.8611
    4AIB   HB12   51  18.247  20.784  20.549 -0.7640 -0.2435 -1.0143
    4AIB   HB13   52  18.091  20.724  20.593  0.7005 -0.8753 -0.8824
    4AIB    CB2   53  18.161  20.611  20.840 -0.2084  0.4773 -0.4621
    4AIB   HB21   54  18.052  20.614  20.818 -0.3212  0.7446  0.0978
    4AIB   HB22   55  18.172  20.623  20.950  0.3449 -0.3744 -0.4040
    4AIB   HB23   56  18.193  20.514  20.799  0.2429 -0.0700  1.1093
    4AIB      C   57  18.372  20.731  20.791 -0.5902 -0.3077  0.0737
    4AIB      O   58  18.444  20.644  20.843 -0.0619 -0.5168  0.0431
    5AIB      N   59  18.426  20.849  20.747  1.2114 -0.1944 -0.4981
    5AIB     HN   60  18.356  20.915  20.723 -1.4877 -1.7146  2.4511
    5AIB     CA   61  18.563  20.885  20.743  0.7317 -0.3623 -1.1335
    5AIB    CB1   62  18.579  21.027  20.696 -0.4185  0.1781  0.1868
    5AIB   HB11   63  18.685  21.060  20.705 -0.3973 -0.3267  2.1045
    5AIB   HB12   64  18.504  21.090  20.749 -0.1700 -0.5630  1.4640
    5AIB   HB13   65  18.550  21.032  20.589 -0.0432  1.1620  0.1198
    5AIB    CB2   66  18.646  20.791  20.654  0.1593  0.2483 -0.1960
    5AIB   HB21   67  18.640  20.689  20.699 -0.8233  1.2006  1.9842
    5AIB   HB22   68  18.743  20.832  20.618 -0.3563  2.3488  0.7005
    5AIB   HB23   69  18.584  20.781  20.563  0.2731 -1.5172 -0.1177
    5AIB      C   70  18.615  20.869  20.881 -0.4334 -0.8641  0.3099
    5AIB      O   71  18.714  20.803  20.900 -0.0291 -0.5975 -0.2233
    6AIB      N   72  18.550  20.937  20.972  0.0677  0.0372  0.4298
    6AIB     HN   73  18.463  20.979  20.948 -0.0275 -1.3174 -1.8665
    6AIB     CA   74  18.582  20.952  21.111  0.0167  0.1552 -0.0527
    6AIB    CB1   75  18.466  21.028  21.183  0.4413  0.1013  0.1815
    6AIB   HB11   76  18.497  21.041  21.289 -1.0815 -1.1211  0.8126
    6AIB   HB12   77  18.373  20.969  21.181  0.6738 -0.2674  0.0597
    6AIB   HB13   78  18.458  21.133  21.147  0.9420 -0.5743 -2.1309
    6AIB    CB2   79  18.708  21.036  21.123 -0.1682  0.0854 -0.8782
    6AIB   HB21   80  18.741  21.047  21.229 -0.5793 -1.8947 -0.5039
    6AIB   HB22   81  18.685  21.134  21.075 -0.5862  1.1103  1.2591
    6AIB   HB23   82  18.798  20.996  21.073 -0.3960  1.1255 -2.1387
    6AIB      C   83  18.602  20.822  21.191 -1.4784  0.3572  0.4348
    6AIB      O   84  18.683  20.804  21.284 -0.0011 -0.3624  0.2239
    7AIB      N   85  18.520  20.724  21.152  0.8504 -0.2682 -0.0763
    7AIB     HN   86  18.462  20.737  21.072  0.3435 -2.9516 -0.2599
    7AIB     CA   87  18.487  20.594  21.219 -0.1839  0.5875  0.3512
    7AIB    CB1   88  18.349  20.552  21.166 -0.2194  0.5298 -0.1527
    7AIB   HB11   89  18.273  20.624  21.204 -1.4687  0.6287 -2.6143
    7AIB   HB12   90  18.311  20.462  21.219 -0.9946  2.6837  3.3522
    7AIB   HB13   91  18.331  20.557  21.057  1.5595  2.4674 -0.4077
    7AIB    CB2   92  18.493  20.593  21.374 -0.1309 -0.7595 -0.7931
    7AIB   HB21   93  18.439  20.678  21.422  3.3228 -0.7669  3.6698
    7AIB   HB22   94  18.595  20.596  21.416 -0.2275  2.8494 -0.4382
    7AIB   HB23   95  18.444  20.502  21.416 -0.1311  0.5694  2.2759
    7AIB      C   96  18.596  20.498  21.172  0.7574  0.1694  1.2715
    7AIB      O   97  18.658  20.429  21.254  0.1398  0.0370  0.2221
    8AIB      N   98  18.623  20.496  21.041 -0.5710 -0.0635  0.1664
    8AIB     HN   99  18.586  20.571  20.986  0.4588  0.5091  0.2299
    8AIB     CA  100  18.727  20.414  20.978 -0.1986 -0.3407 -0.2267
    8AIB    CB1  101  18.712  20.445  20.832 -0.2386 -0.0716  0.1713
    8AIB   HB11  102  18.796  20.392  20.781  0.1678  0.1397  0.6135
    8AIB   HB12  103  18.726  20.553  20.815 -1.1584  0.3900  2.1035
    8AIB   HB13  104  18.614  20.405  20.797 -0.3247  1.1844 -1.0627
    8AIB    CB2  105  18.701  20.259  20.998 -0.7027 -0.0031 -0.0061
    8AIB   HB21  106  18.723  20.231  21.104 -1.3010 -4.1496 -0.7812
    8AIB   HB22  107  18.774  20.206  20.935 -0.4716  0.5887 -0.2501
    8AIB   HB23  108  18.597  20.224  20.979 -0.1255 -0.8903 -1.7055
    8AIB      C  109  18.874  20.447  21.028  0.4139 -0.1273 -0.5681
    8AIB      O  110  18.958  20.357  21.037 -0.3347  0.0596 -0.2295
    9AIB      N  111  18.898  20.579  21.053  0.2136  0.7313 -0.6786
    9AIB     HN  112  18.841  20.654  21.022 -0.8084 -0.5105 -1.9448
    9AIB     CA  113  19.017  20.629  21.112 -0.2053  0.0381  0.2521
    9AIB    CB1  114  19.010  20.784  21.116  0.2790  0.3770  0.7536
    9AIB   HB11  115  19.026  20.826  21.014  1.0218  1.1223  1.1697
    9AIB   HB12  116  19.090  20.832  21.176  1.1341 -0.4830  0.3360
    9AIB   HB13  117  18.916  20.817  21.165 -0.8996 -2.8181  0.8369
    9AIB    CB2  118  19.147  20.595  21.029  0.1127 -0.5247 -0.1252
    9AIB   HB21  119  19.117  20.613  20.924 -0.1936 -1.9866 -0.3215
    9AIB   HB22  120  19.180  20.489  21.030 -0.0995 -0.6238 -1.4340
    9AIB   HB23  121  19.232  20.654  21.068 -0.4539 -0.3772  0.9628
    9AIB      C  122  19.041  20.576  21.250 -0.0935 -0.3371 -0.8593
    9AIB      O  123  19.156  20.552  21.290  0.1931 -0.0006 -0.4148
    9AIB     NT  124  18.936  20.558  21.337 -0.6024 -0.4349  0.3911
    9AIB    HNT  125  18.845  20.589  21.310 -1.0447 -1.7519  0.2740
    9AIB    CAT  126  18.955  20.493  21.462  0.8822 -0.8507 -0.3982
    9AIB    HT1  127  18.861  20.445  21.500  0.7804 -2.8014 -2.7932
    9AIB    HT2  128  18.982  20.567  21.539  0.8145 -0.3707 -0.8247
    9AIB    HT3  129  19.029  20.410  21.462 -0.1209 -1.7705  0.6281
  42.09246  42.09246  42.09246
