Protein
   42
    1ACE   HH31    1  11.542   5.459   7.735 -0.8374 -1.2572  1.3006
    1ACE    CH3    2  11.624   5.397   7.771  0.7236 -0.1462 -0.1766
    1ACE   HH32    3  11.581   5.301   7.796  0.5825  0.2106  1.0127
    1ACE   HH33    4  11.676   5.435   7.859 -0.2591 -0.1327  0.4121
    1ACE      C    5  11.730   5.380   7.663  0.0695 -0.2202  0.5585
    1ACE      O    6  11.758   5.270   7.618  0.0540  1.0038 -0.2107
    2ALA      N    7  11.787   5.495   7.622 -0.0611  0.8061 -0.0509
    2ALA      H    8  11.775   5.576   7.681 -0.1800 -0.4305  1.6979
    2ALA     CA    9  11.912   5.497   7.549  0.5629  0.0854 -0.5256
    2ALA     HA   10  11.887   5.515   7.444  1.7057 -0.9624 -1.0038
    2ALA     CB   11  11.990   5.617   7.586 -0.2625 -0.0710 -0.3097
    2ALA    HB1   12  12.008   5.611   7.693 -1.6197 -1.8009 -0.1490
    2ALA    HB2   13  12.086   5.630   7.535 -0.4005 -2.2246 -1.1963
    2ALA    HB3   14  11.929   5.707   7.574  0.5735  0.5260 -0.2254
    2ALA      C   15  12.004   5.368   7.553  0.0405 -0.0737 -0.1457
    2ALA      O   16  12.070   5.338   7.654 -0.1320  0.5278 -0.8317
    3ALA      N   17  12.000   5.306   7.438 -0.3504 -0.6046  0.3690
    3ALA      H   18  11.952   5.347   7.359 -1.4285 -0.7865  0.9031
    3ALA     CA   19  12.088   5.198   7.394  0.2569 -0.2742  0.1186
    3ALA     HA   20  12.073   5.202   7.286 -2.0856 -0.6233  0.3788
    3ALA     CB   21  12.244   5.229   7.409  0.3634 -1.1555 -0.6957
    3ALA    HB1   22  12.304   5.181   7.332 -0.0539 -2.3741 -0.2987
    3ALA    HB2   23  12.264   5.336   7.411 -0.3279 -1.0137  0.9886
    3ALA    HB3   24  12.280   5.191   7.505 -2.0943 -1.4422  0.1754
    3ALA      C   25  12.047   5.054   7.435  0.4096 -0.0701 -0.3060
    3ALA      O   26  12.091   4.955   7.377 -0.3874 -0.0420  0.3079
    4ALA      N   27  11.964   5.044   7.539  0.3398  0.4179  0.1884
    4ALA      H   28  11.932   5.132   7.578  1.5287  0.6289  0.7338
    4ALA     CA   29  11.932   4.942   7.637  0.3083  0.5764  0.0177
    4ALA     HA   30  11.828   4.913   7.623  0.7285 -0.5870 -0.8367
    4ALA     CB   31  12.013   4.809   7.617 -0.3269 -0.2795 -0.6888
    4ALA    HB1   32  12.118   4.835   7.602 -0.2431  0.5181  1.0208
    4ALA    HB2   33  12.002   4.751   7.709 -1.8042  0.1642 -0.5635
    4ALA    HB3   34  11.984   4.743   7.536  1.4018 -0.4979 -1.1826
    4ALA      C   35  11.938   4.990   7.782  0.2250  0.0311  0.4528
    4ALA      O   36  11.890   4.922   7.870 -0.0408  0.1321  0.3682
    5NME      N   37  11.998   5.103   7.799  0.3600 -0.3421  0.3558
    5NME      H   38  12.031   5.156   7.720 -1.3562  2.6745  1.4771
    5NME    CH3   39  12.018   5.178   7.934  0.8606 -0.3606 -0.5330
    5NME   HH31   40  12.114   5.229   7.940  1.0349 -0.6820 -0.5238
    5NME   HH32   41  11.941   5.254   7.946 -0.8181 -2.2148  1.2259
    5NME   HH33   42  12.012   5.110   8.019  1.5085  1.1570  0.7825
  20.91516  20.91516  20.91516
