Protein
   42
    1ACE   HH31    1   4.165   6.703  16.203  0.3807  1.4037 -0.4176
    1ACE    CH3    2   4.269   6.684  16.229  0.1589 -0.4150 -0.7633
    1ACE   HH32    3   4.305   6.781  16.262 -0.0077  0.1854 -2.2543
    1ACE   HH33    4   4.323   6.661  16.137 -1.1835  2.4676 -2.3877
    1ACE      C    5   4.277   6.576  16.337  0.4323  0.0753  0.3609
    1ACE      O    6   4.323   6.599  16.445 -0.7043 -0.6673 -0.0588
    2ALA      N    7   4.245   6.451  16.294  0.1440 -0.0800 -0.7066
    2ALA      H    8   4.208   6.425  16.203 -0.5391 -1.6672  0.0019
    2ALA     CA    9   4.263   6.339  16.391 -0.0596  0.2723 -0.0851
    2ALA     HA   10   4.324   6.375  16.474  0.0994  1.5324 -0.7108
    2ALA     CB   11   4.133   6.281  16.449  0.2654 -0.3090 -0.0194
    2ALA    HB1   12   4.066   6.237  16.375 -1.4365 -2.6589  2.7225
    2ALA    HB2   13   4.155   6.211  16.530  1.7503  0.2047  0.0496
    2ALA    HB3   14   4.082   6.365  16.496 -0.0196  0.1154 -1.0261
    2ALA      C   15   4.349   6.222  16.325 -0.6153 -0.5051  0.0002
    2ALA      O   16   4.334   6.186  16.210  0.7252 -0.2952 -0.1130
    3ALA      N   17   4.435   6.150  16.400 -0.3166  0.2220 -0.3629
    3ALA      H   18   4.507   6.100  16.350  0.3820 -2.3736  2.9891
    3ALA     CA   19   4.478   6.167  16.542 -0.0432 -0.2136 -0.1917
    3ALA     HA   20   4.387   6.179  16.601 -0.0817  1.1952 -0.4875
    3ALA     CB   21   4.555   6.047  16.591  0.1922 -0.1143 -0.1362
    3ALA    HB1   22   4.495   5.956  16.590 -0.6213  0.3548  1.5036
    3ALA    HB2   23   4.654   6.039  16.547 -0.6035  0.0325 -2.0295
    3ALA    HB3   24   4.582   6.069  16.695 -0.9819  1.7866 -0.1776
    3ALA      C   25   4.561   6.301  16.569 -0.4217 -0.2962  0.2821
    3ALA      O   26   4.640   6.336  16.482  0.4830  0.4812  0.4884
    4ALA      N   27   4.525   6.377  16.676  0.7412 -0.1359  0.7204
    4ALA      H   28   4.467   6.331  16.744 -1.1269 -1.7932 -1.8178
    4ALA     CA   29   4.577   6.504  16.714 -0.4359  0.0409  0.2322
    4ALA     HA   30   4.492   6.572  16.725  0.3255  1.1109 -0.2811
    4ALA     CB   31   4.654   6.484  16.843  0.0739 -0.1646 -0.3738
    4ALA    HB1   32   4.738   6.416  16.832 -0.3613 -0.9471  0.9175
    4ALA    HB2   33   4.700   6.581  16.863 -0.4434 -0.3153  1.7829
    4ALA    HB3   34   4.583   6.457  16.921  0.5837  0.0550  0.1749
    4ALA      C   35   4.662   6.580  16.608 -0.6235  0.1828  0.3016
    4ALA      O   36   4.785   6.587  16.625 -0.0200  0.3642 -0.0159
    5NME      N   37   4.594   6.641  16.507 -0.3665 -0.1903  0.4715
    5NME      H   38   4.493   6.635  16.500 -0.3592 -0.4555  0.5999
    5NME    CH3   39   4.656   6.738  16.417 -0.4272  0.7242  0.5620
    5NME   HH31   40   4.596   6.743  16.326 -1.1515  0.1450  1.0003
    5NME   HH32   41   4.657   6.838  16.462  3.9825  1.2814 -0.3985
    5NME   HH33   42   4.756   6.708  16.386  0.1246  0.3171  2.5457
  20.91516  20.91516  20.91516
