Protein
   42
    1ACE   HH31    1   6.715  12.399  17.395  0.5185 -0.0712  2.1634
    1ACE    CH3    2   6.769  12.492  17.378 -0.4666  0.1734  0.0348
    1ACE   HH32    3   6.874  12.479  17.404 -0.3419  0.0528 -0.5127
    1ACE   HH33    4   6.722  12.573  17.432 -0.1315 -0.7650  1.7930
    1ACE      C    5   6.774  12.517  17.222  0.0581 -0.0490  0.0721
    1ACE      O    6   6.727  12.440  17.136 -0.3091 -0.0645 -0.8024
    2ALA      N    7   6.827  12.636  17.186 -0.0495 -0.2165  0.1801
    2ALA      H    8   6.858  12.707  17.251  0.7396  0.7229 -1.1620
    2ALA     CA    9   6.857  12.661  17.045  0.6745 -0.2461 -0.2232
    2ALA     HA   10   6.770  12.635  16.985  0.9964 -0.5534 -0.5609
    2ALA     CB   11   6.891  12.807  17.039 -0.7970 -0.5599  0.7220
    2ALA    HB1   12   6.984  12.835  17.088 -0.8063  0.8326  0.0145
    2ALA    HB2   13   6.906  12.842  16.936 -0.6266  3.0213  1.8518
    2ALA    HB3   14   6.813  12.867  17.087 -1.3242 -0.3487 -0.3768
    2ALA      C   15   6.967  12.566  16.988  0.0601 -0.2992 -0.9648
    2ALA      O   16   7.086  12.593  17.005 -0.1085 -0.6765 -0.5437
    3ALA      N   17   6.918  12.463  16.922  0.3435  0.1385 -0.0959
    3ALA      H   18   6.825  12.432  16.944 -0.3726  1.3194 -1.3229
    3ALA     CA   19   6.982  12.386  16.816 -0.6195  0.2848  0.0021
    3ALA     HA   20   6.889  12.359  16.766 -2.5631  1.0235  2.9445
    3ALA     CB   21   7.068  12.469  16.724  1.0067 -1.3754 -0.5415
    3ALA    HB1   22   7.020  12.566  16.711  0.1254 -1.7945 -0.4394
    3ALA    HB2   23   7.165  12.487  16.771  0.1741  1.3543  0.3616
    3ALA    HB3   24   7.080  12.413  16.632 -0.3535 -1.0239 -0.9445
    3ALA      C   25   7.042  12.251  16.862  0.3463  0.6639 -0.1506
    3ALA      O   26   7.115  12.181  16.790  0.6814 -0.4468 -0.3592
    4ALA      N   27   7.016  12.217  16.990  0.2210  0.4763  0.2398
    4ALA      H   28   6.975  12.291  17.045  0.3754  0.3431  0.5350
    4ALA     CA   29   7.053  12.095  17.072 -0.8362 -0.3277  0.0002
    4ALA     HA   30   6.969  12.078  17.139 -1.5727 -1.2918 -1.1360
    4ALA     CB   31   7.061  11.960  16.986  0.4393 -0.0891 -0.2417
    4ALA    HB1   32   6.967  11.941  16.933  0.4283  1.0641 -0.6752
    4ALA    HB2   33   7.141  11.949  16.914  0.8174 -1.9367  0.3761
    4ALA    HB3   34   7.075  11.888  17.067 -0.7399  0.1574  0.2138
    4ALA      C   35   7.183  12.128  17.156  0.1156  0.6582  0.8345
    4ALA      O   36   7.220  12.058  17.248 -0.5749 -0.3666 -0.0106
    5NME      N   37   7.242  12.248  17.135 -0.4581  0.0000 -0.7631
    5NME      H   38   7.218  12.305  17.055  0.6085 -0.6612 -1.5777
    5NME    CH3   39   7.369  12.292  17.208  0.0210 -0.7283  0.4361
    5NME   HH31   40   7.456  12.230  17.184  0.5506 -0.1692  0.9100
    5NME   HH32   41   7.395  12.386  17.161 -2.5108 -0.7214 -1.1584
    5NME   HH33   42   7.350  12.302  17.315  0.9272 -2.0555  0.7528
  20.91516  20.91516  20.91516
