Protein
   32
    1ACE   HH31    1   7.302  14.755  12.160  2.2391  2.0821  1.2852
    1ACE    CH3    2   7.378  14.768  12.082  1.1357  0.8035 -0.0657
    1ACE   HH32    3   7.437  14.855  12.109 -0.6655  2.1174 -0.1876
    1ACE   HH33    4   7.335  14.780  11.983 -0.8663 -2.6678  0.2255
    1ACE      C    5   7.457  14.642  12.081  0.0575 -0.1140 -0.4186
    1ACE      O    6   7.420  14.536  12.035 -0.6539 -0.4007  0.0347
    2ALA      N    7   7.577  14.644  12.133  0.0641  0.4883 -0.2613
    2ALA      H    8   7.602  14.730  12.181 -1.2934  0.7218  0.0551
    2ALA     CA    9   7.654  14.524  12.172  0.0526  0.3863 -0.2320
    2ALA     HA   10   7.677  14.467  12.082 -0.4118 -0.0413 -0.0892
    2ALA     CB   11   7.787  14.577  12.222  0.5548  0.3790  0.4128
    2ALA    HB1   12   7.775  14.643  12.308  1.5525  0.7303  0.3133
    2ALA    HB2   13   7.849  14.494  12.257 -2.7873 -2.3679  0.2615
    2ALA    HB3   14   7.847  14.625  12.144 -0.7700 -0.5686 -1.2548
    2ALA      C   15   7.580  14.430  12.274 -0.5265  0.6012  0.3461
    2ALA      O   16   7.630  14.408  12.385 -0.0780  0.2422 -0.0930
    3ALA      N   17   7.464  14.366  12.239  0.3589 -0.0371 -0.7061
    3ALA      H   18   7.429  14.383  12.146 -2.1204 -1.6006 -0.1578
    3ALA     CA   19   7.358  14.304  12.323 -0.5925  0.9608  0.4759
    3ALA     HA   20   7.280  14.269  12.255 -0.3099 -3.0374  1.9268
    3ALA     CB   21   7.415  14.178  12.387 -0.0782 -0.1273 -0.2356
    3ALA    HB1   22   7.514  14.191  12.432  0.6161 -0.8849 -1.5040
    3ALA    HB2   23   7.351  14.139  12.466  1.0857  0.4725  1.0561
    3ALA    HB3   24   7.424  14.100  12.312 -0.3902 -0.9803  0.5893
    3ALA      C   25   7.289  14.398  12.417 -0.5430  0.5295  0.0099
    3ALA      O   26   7.166  14.390  12.425  0.4444  0.3659 -0.4919
    4NME      N   27   7.356  14.489  12.492 -0.0542  0.1898  0.5849
    4NME      H   28   7.457  14.492  12.487 -0.0782  1.6784  0.6565
    4NME    CH3   29   7.291  14.586  12.577  0.2369 -0.0401 -0.3355
    4NME   HH31   30   7.361  14.664  12.608 -0.8400 -0.0668  2.3798
    4NME   HH32   31   7.205  14.637  12.533  0.7919  1.9739  0.7645
    4NME   HH33   32   7.260  14.534  12.668 -1.6578 -0.0072 -0.9132
  20.99041  20.99041  20.99041
