Protein
   32
    1ACE   HH31    1   9.614  12.785  12.785 -0.1816 -0.3919 -0.3458
    1ACE    CH3    2   9.723  12.784  12.781 -0.1335  0.2708  0.4488
    1ACE   HH32    3   9.774  12.833  12.864  1.0295  0.1842 -0.1922
    1ACE   HH33    4   9.768  12.843  12.700  1.1269 -4.3373 -2.6022
    1ACE      C    5   9.779  12.641  12.776 -0.0925 -0.2532  0.6728
    1ACE      O    6   9.864  12.615  12.692  0.3684 -0.1416 -0.1202
    2ALA      N    7   9.724  12.552  12.856 -0.8305 -0.1386  0.1222
    2ALA      H    8   9.647  12.579  12.916 -2.0103 -1.9473 -0.5084
    2ALA     CA    9   9.764  12.411  12.858 -0.1777 -0.2283 -0.2623
    2ALA     HA   10   9.873  12.415  12.857 -0.1122 -0.9813  1.4428
    2ALA     CB   11   9.710  12.335  12.976 -0.2841 -0.0590  0.8408
    2ALA    HB1   12   9.754  12.378  13.066 -1.1667  0.8997  0.8313
    2ALA    HB2   13   9.603  12.355  12.985 -1.1561 -3.9033  0.5659
    2ALA    HB3   14   9.736  12.231  12.957  1.2830  0.5515 -0.5971
    2ALA      C   15   9.711  12.333  12.734 -0.3551  0.0604 -0.5295
    2ALA      O   16   9.591  12.329  12.721 -0.2797 -0.1553  0.2495
    3ALA      N   17   9.804  12.277  12.654  0.0584 -0.1197  0.1654
    3ALA      H   18   9.898  12.268  12.690 -0.6295 -0.0085  2.1415
    3ALA     CA   19   9.769  12.188  12.540  0.7037 -0.4178  0.0532
    3ALA     HA   20   9.679  12.223  12.491  0.3862 -0.3640  0.6657
    3ALA     CB   21   9.882  12.197  12.441 -0.4490 -0.3427 -0.0925
    3ALA    HB1   22   9.906  12.302  12.429 -0.9723 -0.1146  0.7290
    3ALA    HB2   23   9.972  12.153  12.486 -0.2247 -1.6945 -1.7764
    3ALA    HB3   24   9.860  12.143  12.349  0.2693  0.9639 -1.0756
    3ALA      C   25   9.743  12.043  12.587  0.4991 -0.4108  0.1574
    3ALA      O   26   9.813  11.995  12.677 -0.0580 -0.1533  0.2458
    4NME      N   27   9.638  11.975  12.530 -0.1355 -0.0751  0.6161
    4NME      H   28   9.580  12.025  12.464  0.5093  1.5991  1.2532
    4NME    CH3   29   9.594  11.845  12.574 -0.6770  0.0788 -0.1155
    4NME   HH31   30   9.678  11.795  12.622  2.0179  3.4611 -0.7944
    4NME   HH32   31   9.511  11.862  12.642 -0.7806 -0.1409 -0.1845
    4NME   HH33   32   9.565  11.787  12.486 -0.8149 -1.9850  1.2111
  20.99041  20.99041  20.99041
