Protein
   32
    1ACE   HH31    1   6.384  13.971  10.685 -3.3446  1.0779 -1.4791
    1ACE    CH3    2   6.433  13.933  10.596  0.3019  0.4169  0.6013
    1ACE   HH32    3   6.506  14.006  10.561 -0.1790  0.2083 -0.9209
    1ACE   HH33    4   6.353  13.928  10.522  0.1283 -0.1246  0.8197
    1ACE      C    5   6.497  13.801  10.610 -0.4882 -0.0949 -0.4920
    1ACE      O    6   6.572  13.788  10.709  0.3602 -0.0693 -0.4911
    2ALA      N    7   6.461  13.697  10.536  0.3443 -0.3731 -0.0334
    2ALA      H    8   6.389  13.712  10.467 -1.8863  0.9233  2.4147
    2ALA     CA    9   6.503  13.561  10.564 -0.1697  0.3603  0.0798
    2ALA     HA   10   6.494  13.549  10.672 -0.3196  3.4929  0.5392
    2ALA     CB   11   6.400  13.468  10.497 -0.3077  0.3612  0.3798
    2ALA    HB1   12   6.417  13.480  10.390 -1.4045 -3.0271 -0.2618
    2ALA    HB2   13   6.398  13.364  10.527  4.1140 -0.7190 -2.2350
    2ALA    HB3   14   6.301  13.506  10.521 -0.4402 -0.4887  1.2154
    2ALA      C   15   6.640  13.530  10.505  0.0073 -0.4655 -0.6497
    2ALA      O   16   6.686  13.590  10.407 -1.2363  0.3944  0.0856
    3ALA      N   17   6.702  13.428  10.562 -0.3174  0.4376  0.5145
    3ALA      H   18   6.658  13.373  10.635  0.1908 -0.5663  0.0913
    3ALA     CA   19   6.847  13.398  10.542  1.1386 -0.2403  0.2123
    3ALA     HA   20   6.878  13.334  10.624 -1.7588 -0.2644  1.4472
    3ALA     CB   21   6.865  13.308  10.422 -0.6031  0.8722 -0.3530
    3ALA    HB1   22   6.790  13.230  10.425 -0.1475  0.4396 -0.0419
    3ALA    HB2   23   6.859  13.368  10.331  0.3185  4.3150  1.6759
    3ALA    HB3   24   6.964  13.262  10.421 -0.2520  1.5796 -2.3097
    3ALA      C   25   6.941  13.524  10.549  0.2008  0.1506 -0.3580
    3ALA      O   26   7.043  13.526  10.491 -0.1765  0.1500  0.2308
    4NME      N   27   6.903  13.624  10.630 -0.2389 -0.3912 -0.3366
    4NME      H   28   6.815  13.636  10.678 -0.0943  0.4144 -0.2436
    4NME    CH3   29   6.995  13.738  10.642 -0.0221  0.1010 -0.2631
    4NME   HH31   30   7.094  13.697  10.661 -1.2035 -2.0953  1.6828
    4NME   HH32   31   6.996  13.794  10.549 -0.1650 -0.2109 -0.4530
    4NME   HH33   32   6.952  13.805  10.717 -1.7561  0.6229 -1.6538
  20.99041  20.99041  20.99041
