Protein
   32
    1ACE   HH31    1  13.613  11.442   9.387 -0.0035 -0.6892  3.1264
    1ACE    CH3    2  13.643  11.543   9.412  1.2364  0.0785 -0.7326
    1ACE   HH32    3  13.654  11.551   9.520 -4.1582  3.2832 -0.0663
    1ACE   HH33    4  13.566  11.604   9.365  0.0978 -0.9198 -0.1890
    1ACE      C    5  13.774  11.571   9.339 -0.8774 -0.2882  0.5011
    1ACE      O    6  13.833  11.482   9.277 -0.2264 -0.0089  0.1410
    2ALA      N    7  13.827  11.688   9.350  0.0096 -0.3100  0.7868
    2ALA      H    8  13.777  11.754   9.408 -1.8704 -0.4463 -0.5556
    2ALA     CA    9  13.959  11.735   9.303 -0.2841  0.2765 -0.1365
    2ALA     HA   10  13.955  11.844   9.299  2.5695  0.4327 -1.0317
    2ALA     CB   11  14.066  11.689   9.401  0.9629 -0.3874 -0.0872
    2ALA    HB1   12  14.077  11.581   9.401 -0.5559 -0.6078  2.0888
    2ALA    HB2   13  14.162  11.739   9.384  0.2299  0.1500 -3.1398
    2ALA    HB3   14  14.039  11.725   9.500  1.0237 -0.5338 -0.0136
    2ALA      C   15  13.999  11.702   9.158 -0.2599 -0.3384  0.0651
    2ALA      O   16  14.110  11.736   9.131 -0.3125  0.0575  0.5273
    3ALA      N   17  13.907  11.653   9.074 -0.2593 -0.4778  0.0281
    3ALA      H   18  13.828  11.607   9.117  0.8859 -1.8675  0.7354
    3ALA     CA   19  13.917  11.634   8.928 -0.4305 -0.2760 -0.3104
    3ALA     HA   20  14.002  11.566   8.920  0.4642  0.5047  1.7770
    3ALA     CB   21  13.797  11.560   8.874 -0.4865 -0.2891 -0.8264
    3ALA    HB1   22  13.713  11.628   8.855 -1.6689 -1.9816 -1.9984
    3ALA    HB2   23  13.821  11.505   8.783 -1.6295 -1.0809 -0.6756
    3ALA    HB3   24  13.774  11.490   8.955  1.6089 -0.9915 -0.7974
    3ALA      C   25  13.974  11.759   8.850  0.1050 -0.1167  0.2212
    3ALA      O   26  13.900  11.833   8.789  0.0527 -1.0781 -0.6271
    4NME      N   27  14.112  11.772   8.846 -0.3883 -0.5363 -0.2221
    4NME      H   28  14.168  11.711   8.905  0.2426  0.7785  0.5895
    4NME    CH3   29  14.181  11.877   8.759  0.5564 -0.2823 -0.2601
    4NME   HH31   30  14.132  11.974   8.762 -0.3931 -0.7016 -1.1260
    4NME   HH32   31  14.283  11.887   8.795  0.1190  1.0144  0.6922
    4NME   HH33   32  14.181  11.844   8.655  0.8689  2.0537 -1.0426
  20.99041  20.99041  20.99041
