Protein
   22
    1ACE   HH31    1   1.923   0.257   7.103  0.0341  0.6047  0.8734
    1ACE    CH3    2   1.916   0.151   7.127 -0.0179  0.5461  0.6129
    1ACE   HH32    3   2.014   0.123   7.165  1.7726  3.0799 -1.7586
    1ACE   HH33    4   1.891   0.085   7.044  0.1828 -0.0676  1.0314
    1ACE      C    5   1.819   0.127   7.237  0.4021 -0.4630  0.2758
    1ACE      O    6   1.819   0.014   7.293  0.0925  0.1033 -0.5439
    2ALA      N    7   1.725   0.217   7.255 -0.4871 -0.0984  0.1784
    2ALA      H    8   1.736   0.305   7.206 -0.8435  0.0861  0.4227
    2ALA     CA    9   1.602   0.201   7.341  0.1169  0.2446 -0.1338
    2ALA     HA   10   1.529   0.251   7.277  0.5101  1.3161  0.2315
    2ALA     CB   11   1.560   0.056   7.359  0.5276  0.0612  0.0265
    2ALA    HB1   12   1.613   0.008   7.441 -1.0199 -1.0568  0.4257
    2ALA    HB2   13   1.453   0.046   7.377  0.7781 -2.6747  0.4004
    2ALA    HB3   14   1.577  -0.002   7.269 -1.4498  0.1272 -0.4507
    2ALA      C   15   1.589   0.287   7.466 -0.2560 -0.3533 -0.2724
    2ALA      O   16   1.588   0.408   7.442  0.3128 -0.5848  0.1518
    3NME      N   17   1.561   0.228   7.584 -0.2981 -0.0731  0.7032
    3NME      H   18   1.560   0.127   7.589 -0.9265 -0.0700  0.7380
    3NME    CH3   19   1.520   0.313   7.704  0.6347  0.5244  0.3564
    3NME   HH31   20   1.416   0.347   7.708 -0.4543 -2.4573  0.0552
    3NME   HH32   21   1.543   0.266   7.800  0.0642  0.0357  0.2581
    3NME   HH33   22   1.590   0.396   7.706 -0.1078  1.1665  0.1588
  10.72160  10.72160  10.72160
