Protein
   42
    1ACE   HH31    1   7.329  13.540  12.522 -0.4354 -0.6308  1.1949
    1ACE    CH3    2   7.356  13.435  12.533  0.2759 -0.5410  0.3804
    1ACE   HH32    3   7.271  13.367  12.526  0.2525 -0.8712  3.0771
    1ACE   HH33    4   7.405  13.427  12.630 -0.6417  0.0332  0.9173
    1ACE      C    5   7.448  13.400  12.418  0.1854  0.2088 -0.0303
    1ACE      O    6   7.519  13.301  12.426  0.0822  0.1240  0.0333
    2ALA      N    7   7.451  13.479  12.311  0.5468  0.1151 -1.0336
    2ALA      H    8   7.395  13.562  12.323  1.1164  0.4683 -0.7694
    2ALA     CA    9   7.558  13.475  12.214  0.0394  0.1683 -0.0020
    2ALA     HA   10   7.625  13.392  12.238 -0.0815 -0.4388 -1.6132
    2ALA     CB   11   7.493  13.451  12.074 -0.7256 -0.3297 -0.0788
    2ALA    HB1   12   7.548  13.502  11.995 -1.1843 -0.9311 -0.7986
    2ALA    HB2   13   7.496  13.343  12.057  0.5464 -0.1838 -0.8912
    2ALA    HB3   14   7.397  13.503  12.068 -0.3738  0.1999 -2.1308
    2ALA      C   15   7.632  13.610  12.204 -1.0771  0.4117 -0.3393
    2ALA      O   16   7.568  13.710  12.228  0.5639  0.1590  0.7704
    3ALA      N   17   7.760  13.622  12.167  0.3087  0.0124  0.1281
    3ALA      H   18   7.798  13.716  12.164  0.5302 -0.0788  0.0510
    3ALA     CA   19   7.860  13.518  12.166  0.2812 -0.0016  0.3697
    3ALA     HA   20   7.950  13.562  12.124  0.4201 -1.4439 -0.9267
    3ALA     CB   21   7.890  13.482  12.313 -0.0324 -0.0883 -0.0805
    3ALA    HB1   22   7.979  13.423  12.333  0.4312  0.5374 -0.2400
    3ALA    HB2   23   7.922  13.581  12.347  3.5962 -0.3403 -2.2117
    3ALA    HB3   24   7.813  13.431  12.370  0.5886 -1.4229 -0.3956
    3ALA      C   25   7.829  13.399  12.067  0.5522  0.1053 -0.0636
    3ALA      O   26   7.785  13.419  11.952  0.0513 -0.0914  0.0920
    4ALA      N   27   7.852  13.277  12.113 -0.2417  0.2590 -0.4471
    4ALA      H   28   7.891  13.269  12.206  1.5990  0.5727 -1.1520
    4ALA     CA   29   7.829  13.150  12.039 -0.9405 -0.2161  0.3393
    4ALA     HA   30   7.789  13.170  11.939 -0.0531  1.8833  0.3493
    4ALA     CB   31   7.971  13.093  12.013  0.1774  0.4900 -0.4037
    4ALA    HB1   32   8.024  13.165  11.951 -0.9728  0.7003 -1.1842
    4ALA    HB2   33   8.032  13.073  12.101 -0.4555 -4.4047 -0.7659
    4ALA    HB3   34   7.957  12.991  11.976 -2.1119 -0.6512  3.1178
    4ALA      C   35   7.742  13.051  12.125  0.5079  0.2035  0.5951
    4ALA      O   36   7.756  12.928  12.117  0.6669  0.5954 -0.2325
    5NME      N   37   7.645  13.095  12.211  0.1027  0.5805  0.0097
    5NME      H   38   7.614  13.191  12.205 -1.6203  0.0317 -0.4750
    5NME    CH3   39   7.572  13.005  12.309 -0.4807  0.0248 -0.0915
    5NME   HH31   40   7.638  12.924  12.338 -1.7593 -0.7842  0.5982
    5NME   HH32   41   7.539  13.056  12.399 -0.0175  0.9996 -0.4595
    5NME   HH33   42   7.477  12.972  12.267 -2.8337  2.3336  2.9617
  20.91516  20.91516  20.91516
