Protein
   42
    1ACE   HH31    1   6.906   9.787   2.157  1.3836 -4.6607  1.5793
    1ACE    CH3    2   7.013   9.810   2.156  0.6629 -0.5931  0.8102
    1ACE   HH32    3   7.054   9.777   2.252 -0.3119 -3.7452  0.2549
    1ACE   HH33    4   7.041   9.915   2.146 -2.4389  0.2779  0.1515
    1ACE      C    5   7.075   9.728   2.049  0.5848  0.3887  0.1841
    1ACE      O    6   7.015   9.652   1.980 -0.2741  0.2936  0.1386
    2ALA      N    7   7.206   9.757   2.038 -0.3408 -0.3705  0.1969
    2ALA      H    8   7.239   9.828   2.102 -1.4671  1.6983 -1.4024
    2ALA     CA    9   7.301   9.692   1.947 -0.6796  0.6616  0.3398
    2ALA     HA   10   7.276   9.586   1.937 -1.5571  0.9340 -0.4268
    2ALA     CB   11   7.287   9.744   1.803  0.6279 -0.1220  0.8815
    2ALA    HB1   12   7.291   9.852   1.822 -1.8972 -0.2748  2.8568
    2ALA    HB2   13   7.362   9.697   1.739 -0.9563 -1.6018  0.0625
    2ALA    HB3   14   7.188   9.707   1.777  1.9269 -1.4751 -2.6787
    2ALA      C   15   7.454   9.699   1.991  0.4209  0.1313  0.1698
    2ALA      O   16   7.482   9.789   2.067  0.0407  0.6107 -0.4011
    3ALA      N   17   7.551   9.630   1.928 -0.5744  0.0472  0.6117
    3ALA      H   18   7.640   9.671   1.953 -0.3672  0.7136 -1.0352
    3ALA     CA   19   7.576   9.488   1.882  0.4704  0.3087 -0.4769
    3ALA     HA   20   7.612   9.498   1.780 -2.4547  0.1595 -1.6026
    3ALA     CB   21   7.682   9.434   1.977 -0.9610  0.5916  0.6339
    3ALA    HB1   22   7.771   9.497   1.974 -0.5172 -0.0898 -1.4333
    3ALA    HB2   23   7.638   9.425   2.076 -1.5062  0.9350  0.4263
    3ALA    HB3   24   7.713   9.337   1.938 -0.7546 -0.0098  2.2212
    3ALA      C   25   7.446   9.398   1.893  0.3910  0.0427  0.3670
    3ALA      O   26   7.383   9.395   1.996  0.2396 -0.3865 -0.3481
    4ALA      N   27   7.417   9.315   1.792  0.2751  0.1182  0.0615
    4ALA      H   28   7.475   9.321   1.709 -0.0876  0.0786 -0.1959
    4ALA     CA   29   7.299   9.227   1.793 -0.1469  0.6468 -0.0913
    4ALA     HA   30   7.218   9.289   1.832  0.6763  2.2119 -0.8164
    4ALA     CB   31   7.260   9.195   1.646  0.3258  0.6871  0.2186
    4ALA    HB1   32   7.248   9.289   1.592 -0.3719  0.8508  0.6321
    4ALA    HB2   33   7.330   9.131   1.593 -0.7495 -0.6749  0.3874
    4ALA    HB3   34   7.167   9.137   1.650  1.6425 -1.4511  2.0146
    4ALA      C   35   7.335   9.103   1.881 -0.1828 -0.3044 -0.3128
    4ALA      O   36   7.383   9.007   1.834  0.8614 -0.2462  0.3997
    5NME      N   37   7.302   9.116   2.011  0.2976 -0.0164  0.4764
    5NME      H   38   7.266   9.203   2.049  0.5440 -0.5090  1.9098
    5NME    CH3   39   7.315   9.012   2.111 -0.2324  0.8393 -0.0050
    5NME   HH31   40   7.420   8.989   2.129 -0.5132  0.5763  1.4206
    5NME   HH32   41   7.278   9.058   2.203 -1.6875 -0.3597  0.0461
    5NME   HH33   42   7.260   8.921   2.090 -0.2677  1.4765 -3.0424
  20.91516  20.91516  20.91516
