Protein
   42
    1ACE   HH31    1   9.556  12.708  14.010  0.4059  0.1198 -1.2561
    1ACE    CH3    2   9.644  12.770  14.030 -0.0664  0.2998  0.4367
    1ACE   HH32    3   9.732  12.737  13.976  0.0463 -0.2408  0.9485
    1ACE   HH33    4   9.673  12.764  14.135  1.6599  1.0163  0.0214
    1ACE      C    5   9.608  12.911  13.999  1.2740  0.1889  0.4352
    1ACE      O    6   9.688  12.979  13.932 -0.1441  0.0502  0.1688
    2ALA      N    7   9.490  12.955  14.046 -0.3793  0.2432 -0.3248
    2ALA      H    8   9.446  12.897  14.116  1.6022  0.0932  0.9111
    2ALA     CA    9   9.432  13.085  14.034  0.1101 -0.5650  0.5588
    2ALA     HA   10   9.371  13.101  13.945  0.8918  4.6419  0.6783
    2ALA     CB   11   9.343  13.107  14.151 -0.6084  0.9791  0.3175
    2ALA    HB1   12   9.398  13.066  14.235  2.0768 -1.3975 -2.3725
    2ALA    HB2   13   9.317  13.212  14.169 -1.8292  0.4704  1.7440
    2ALA    HB3   14   9.242  13.066  14.146  0.4620 -2.0234  1.1012
    2ALA      C   15   9.535  13.201  14.039 -0.2774  0.5413  0.1834
    2ALA      O   16   9.602  13.223  14.138 -0.2366  0.3863 -0.7751
    3ALA      N   17   9.565  13.271  13.931 -0.0981 -0.1962 -0.1747
    3ALA      H   18   9.649  13.327  13.939  0.8094 -1.7498  2.4444
    3ALA     CA   19   9.514  13.253  13.796 -0.2799 -0.6405  0.5253
    3ALA     HA   20   9.467  13.155  13.793  1.3782 -1.5473  2.2385
    3ALA     CB   21   9.407  13.352  13.761  1.1673 -0.3625  0.3711
    3ALA    HB1   22   9.386  13.352  13.653 -1.0086 -1.3051  0.7301
    3ALA    HB2   23   9.311  13.319  13.801  0.8788 -0.3917 -0.3200
    3ALA    HB3   24   9.429  13.453  13.795  2.0943  0.2728 -1.8860
    3ALA      C   25   9.636  13.243  13.692  1.3401  0.4609 -0.7788
    3ALA      O   26   9.636  13.308  13.593  0.1301  0.0343  0.3507
    4ALA      N   27   9.735  13.165  13.737  0.1216  0.4404  0.2506
    4ALA      H   28   9.722  13.115  13.824 -0.9210 -1.6878 -1.0849
    4ALA     CA   29   9.845  13.121  13.659 -0.6845  1.0650 -0.1638
    4ALA     HA   30   9.877  13.201  13.592  1.1550 -0.7176 -1.5442
    4ALA     CB   31   9.964  13.099  13.751  0.0853 -0.2777 -0.2164
    4ALA    HB1   32  10.045  13.054  13.695  0.4380  0.6262 -0.4586
    4ALA    HB2   33  10.005  13.191  13.793 -0.5534  0.4202 -1.0809
    4ALA    HB3   34   9.934  13.034  13.833 -0.7747 -1.6626 -1.5777
    4ALA      C   35   9.810  13.003  13.569 -0.1648 -0.1700  0.2383
    4ALA      O   36   9.898  12.926  13.525 -0.3167 -0.2832 -0.1821
    5NME      N   37   9.682  12.994  13.534 -0.0076 -0.3600 -0.7255
    5NME      H   38   9.621  13.065  13.572  1.4707  1.8763 -2.2757
    5NME    CH3   39   9.637  12.900  13.432 -0.3504 -0.4371 -0.0494
    5NME   HH31   40   9.620  12.804  13.481  1.3296  0.6597  2.9514
    5NME   HH32   41   9.554  12.951  13.382 -0.1420  0.1797  0.2184
    5NME   HH33   42   9.724  12.881  13.370  1.0259 -1.6824  2.1156
  20.91516  20.91516  20.91516
