Protein
   32
    1ACE   HH31    1  13.739   7.528   9.630  1.5751 -1.1161  2.3175
    1ACE    CH3    2  13.831   7.527   9.572  0.2888 -0.0378  0.0953
    1ACE   HH32    3  13.924   7.557   9.622 -0.0643 -1.6958  1.9088
    1ACE   HH33    4  13.800   7.600   9.497 -1.9149 -0.7650  0.2346
    1ACE      C    5  13.838   7.395   9.498  0.4533 -0.4786  0.3070
    1ACE      O    6  13.882   7.397   9.380 -0.5271  0.0613 -0.1170
    2ALA      N    7  13.803   7.291   9.566 -0.0134 -0.5869 -0.8248
    2ALA      H    8  13.764   7.296   9.659 -0.3301 -1.9569 -0.8637
    2ALA     CA    9  13.792   7.160   9.505 -0.8130  0.2660 -0.1630
    2ALA     HA   10  13.849   7.160   9.412  2.0480  1.4711  1.4910
    2ALA     CB   11  13.872   7.068   9.600 -0.6911  0.0018 -0.4843
    2ALA    HB1   12  13.823   7.053   9.696  1.3581  1.6137  0.8974
    2ALA    HB2   13  13.877   6.974   9.544 -0.8956 -0.0601 -0.4002
    2ALA    HB3   14  13.972   7.103   9.624 -0.2552 -2.4255  1.8090
    2ALA      C   15  13.648   7.122   9.485 -0.2800  0.3127 -0.4639
    2ALA      O   16  13.553   7.161   9.557 -0.1624 -0.2379 -0.0627
    3ALA      N   17  13.617   7.047   9.375 -0.5514  0.2097 -0.3584
    3ALA      H   18  13.688   7.017   9.309 -1.2262 -0.1314 -0.9472
    3ALA     CA   19  13.483   7.027   9.322  0.6006  0.1897 -0.0707
    3ALA     HA   20  13.497   6.991   9.220  0.4211 -0.8347  0.2550
    3ALA     CB   21  13.420   6.921   9.406  0.2839  0.9764  0.4174
    3ALA    HB1   22  13.481   6.830   9.400 -1.7017 -0.4954  1.3857
    3ALA    HB2   23  13.393   6.945   9.509 -1.7837 -1.8763  0.6898
    3ALA    HB3   24  13.328   6.883   9.361  2.5957 -0.9670 -3.1236
    3ALA      C   25  13.401   7.160   9.295 -0.4569  0.0490 -0.2163
    3ALA      O   26  13.417   7.219   9.195 -0.7262  0.2069  0.9637
    4NME      N   27  13.316   7.202   9.385 -0.1424 -0.1620  0.0250
    4NME      H   28  13.317   7.160   9.477  1.5912  0.9334  0.5537
    4NME    CH3   29  13.220   7.313   9.354 -0.3084  0.5969  0.1228
    4NME   HH31   30  13.207   7.335   9.248 -0.2031 -2.2458 -0.5495
    4NME   HH32   31  13.120   7.284   9.387 -0.3398  2.6958  2.1977
    4NME   HH33   32  13.250   7.405   9.404 -1.5373  0.9381  0.2671
  20.99041  20.99041  20.99041
