Protein
   42
    1ACE   HH31    1   9.180   6.316   5.778  0.7407  0.8357 -0.5839
    1ACE    CH3    2   9.244   6.240   5.822 -0.5663  0.1151  0.1438
    1ACE   HH32    3   9.190   6.146   5.838  1.0629 -1.0424 -0.8097
    1ACE   HH33    4   9.283   6.284   5.914  3.7220 -1.0733 -0.8795
    1ACE      C    5   9.357   6.220   5.720  0.3453 -0.2439 -0.3910
    1ACE      O    6   9.345   6.271   5.605  0.3473  0.0437 -0.0040
    2ALA      N    7   9.462   6.146   5.758 -0.3043 -0.6399 -0.2390
    2ALA      H    8   9.449   6.104   5.848  0.5220 -0.1045  0.1476
    2ALA     CA    9   9.587   6.127   5.684  0.1095  0.0530 -0.8928
    2ALA     HA   10   9.662   6.180   5.744 -1.0641  0.3881  0.3509
    2ALA     CB   11   9.622   5.976   5.703 -0.6762  0.2532  0.5296
    2ALA    HB1   12   9.620   5.950   5.809 -0.1698 -0.3333  0.4037
    2ALA    HB2   13   9.556   5.909   5.647 -1.2438  1.3791 -0.1858
    2ALA    HB3   14   9.720   5.953   5.663 -0.8393 -3.3370  1.8719
    2ALA      C   15   9.595   6.173   5.534 -0.5352 -0.5502 -0.0775
    2ALA      O   16   9.562   6.100   5.444  0.0503  0.6030 -0.9194
    3ALA      N   17   9.642   6.292   5.499 -0.6250 -0.1192  0.2854
    3ALA      H   18   9.643   6.302   5.398  0.9534 -0.1375  0.2728
    3ALA     CA   19   9.672   6.400   5.594  0.1240 -1.6876  0.2692
    3ALA     HA   20   9.632   6.390   5.695 -0.8592 -0.8438 -0.0262
    3ALA     CB   21   9.823   6.411   5.604 -0.4243  0.6681 -0.3759
    3ALA    HB1   22   9.868   6.427   5.506 -0.5883  1.5626 -0.3050
    3ALA    HB2   23   9.853   6.493   5.668 -0.4957  1.5844 -1.4976
    3ALA    HB3   24   9.863   6.315   5.638 -0.6720  0.7273  0.0858
    3ALA      C   25   9.601   6.534   5.547 -0.3770  0.0451 -0.5126
    3ALA      O   26   9.656   6.619   5.478  0.3184  0.7525 -0.0059
    4ALA      N   27   9.466   6.537   5.571 -0.2182  0.1214  0.2668
    4ALA      H   28   9.428   6.449   5.601 -1.8743  0.8729  0.4845
    4ALA     CA   29   9.386   6.657   5.569  0.1366 -0.0197  0.1400
    4ALA     HA   30   9.400   6.719   5.481  1.5499  2.4068  1.9066
    4ALA     CB   31   9.233   6.610   5.571 -0.1042  0.4547 -0.4252
    4ALA    HB1   32   9.209   6.555   5.662  2.2449 -1.8715 -1.0527
    4ALA    HB2   33   9.175   6.700   5.554  1.2023  1.8500  2.0130
    4ALA    HB3   34   9.220   6.535   5.493  1.1805  0.0650 -0.2808
    4ALA      C   35   9.417   6.750   5.691 -0.2749 -0.6035 -0.2235
    4ALA      O   36   9.467   6.710   5.793  0.2128 -0.1583 -0.1747
    5NME      N   37   9.385   6.877   5.673  0.0813  0.0779 -0.1569
    5NME      H   38   9.326   6.895   5.593 -1.8493 -2.1400  0.6624
    5NME    CH3   39   9.406   6.986   5.770 -0.3524  0.0121 -0.1502
    5NME   HH31   40   9.341   7.071   5.747 -0.3744 -0.3114 -1.3703
    5NME   HH32   41   9.390   6.952   5.872  0.9199 -1.4769 -0.3938
    5NME   HH33   42   9.511   7.013   5.756 -0.0512 -0.1968  1.6137
  20.91516  20.91516  20.91516
