Protein
   42
    1ACE   HH31    1   9.813  11.741   8.453 -1.6786 -0.0839  2.0393
    1ACE    CH3    2   9.898  11.718   8.518  0.1108 -0.0819 -0.1647
    1ACE   HH32    3   9.984  11.780   8.495 -0.2458  0.5371  0.1276
    1ACE   HH33    4   9.933  11.617   8.498 -0.1044 -0.2069  0.0800
    1ACE      C    5   9.855  11.746   8.658 -0.2073 -0.6420 -0.5880
    1ACE      O    6   9.914  11.835   8.725 -0.0699 -0.2028  0.4518
    2ALA      N    7   9.746  11.680   8.699 -0.2180 -0.7074  0.5053
    2ALA      H    8   9.704  11.611   8.637 -1.0536  0.7499 -0.6132
    2ALA     CA    9   9.692  11.680   8.836 -0.1472 -0.0951 -0.2095
    2ALA     HA   10   9.722  11.767   8.894 -1.2704 -0.8775  1.6283
    2ALA     CB   11   9.536  11.669   8.834  0.7950 -0.9576 -0.4108
    2ALA    HB1   12   9.499  11.596   8.762  0.2644  0.7171 -1.9126
    2ALA    HB2   13   9.508  11.641   8.935 -0.2359  1.6047  0.0797
    2ALA    HB3   14   9.490  11.766   8.815 -1.2175 -1.2524  2.4095
    2ALA      C   15   9.753  11.558   8.913  0.4837 -0.4495  0.0662
    2ALA      O   16   9.715  11.446   8.900  0.0815 -0.3234  0.1204
    3ALA      N   17   9.849  11.578   9.004 -0.6623 -0.5873  1.0187
    3ALA      H   18   9.883  11.487   9.034 -0.1121 -0.9181 -0.5308
    3ALA     CA   19   9.948  11.689   9.029 -0.5449  0.3860  0.2287
    3ALA     HA   20   9.930  11.779   8.970 -0.2215  0.2304 -0.1173
    3ALA     CB   21   9.946  11.712   9.175 -0.2380 -0.6536 -0.2160
    3ALA    HB1   22   9.992  11.624   9.221  0.3082 -0.1908  0.1313
    3ALA    HB2   23  10.002  11.802   9.199 -3.2843  0.7307  2.3889
    3ALA    HB3   24   9.849  11.738   9.218  0.7706  0.7093  1.2901
    3ALA      C   25  10.089  11.638   8.982  0.2514 -0.0271 -0.2323
    3ALA      O   26  10.121  11.524   8.988 -0.3575  0.1941  0.1048
    4ALA      N   27  10.172  11.725   8.924  0.5019  0.6776 -0.0836
    4ALA      H   28  10.137  11.819   8.912 -0.2901  0.3234 -0.6479
    4ALA     CA   29  10.292  11.689   8.853 -0.4053 -0.0408 -1.0240
    4ALA     HA   30  10.342  11.611   8.911  1.0995 -0.6323 -2.9769
    4ALA     CB   31  10.267  11.643   8.710  0.8143  0.1124 -0.1747
    4ALA    HB1   32  10.180  11.697   8.674  1.0898  2.2757  2.1380
    4ALA    HB2   33  10.356  11.647   8.647  1.5003 -1.4724  0.6286
    4ALA    HB3   34  10.236  11.539   8.713 -2.1434  0.9430  0.4875
    4ALA      C   35  10.396  11.805   8.856 -0.3172 -0.0126  0.5532
    4ALA      O   36  10.358  11.921   8.873  0.3375 -0.4263 -0.3533
    5NME      N   37  10.522  11.773   8.829 -0.0779  0.7019 -0.7944
    5NME      H   38  10.548  11.675   8.832 -2.9978 -0.1840 -1.3985
    5NME    CH3   39  10.632  11.867   8.810 -0.1472 -0.3955  0.1406
    5NME   HH31   40  10.706  11.838   8.884 -1.4402 -0.0678  1.6128
    5NME   HH32   41  10.685  11.855   8.716 -0.1993 -0.3157  0.1012
    5NME   HH33   42  10.599  11.969   8.828 -0.9738 -0.8495  1.3886
  20.91516  20.91516  20.91516
