Protein
   42
    1ACE   HH31    1   5.203   8.516  15.557 -0.5581  1.9378  0.0862
    1ACE    CH3    2   5.132   8.504  15.640 -0.3954  0.2724  0.0056
    1ACE   HH32    3   5.035   8.540  15.607 -0.3410 -2.3342 -3.5987
    1ACE   HH33    4   5.174   8.554  15.727  4.1879 -0.8329 -1.2760
    1ACE      C    5   5.117   8.344  15.658 -0.0905 -0.5387 -0.1028
    1ACE      O    6   5.140   8.291  15.765 -0.4809 -0.3511  0.0406
    2ALA      N    7   5.061   8.280  15.559 -0.8489  0.1533  0.2841
    2ALA      H    8   5.039   8.334  15.476 -0.2148  0.5916  0.4015
    2ALA     CA    9   5.054   8.134  15.536  0.4402  0.2407 -0.1299
    2ALA     HA   10   4.978   8.108  15.610 -2.0723 -0.7884 -2.9051
    2ALA     CB   11   5.004   8.100  15.400 -0.2831  0.2633  0.7527
    2ALA    HB1   12   5.002   7.992  15.386 -0.1585  0.1170  1.7524
    2ALA    HB2   13   4.908   8.141  15.368  1.3681  1.8404 -2.8000
    2ALA    HB3   14   5.079   8.143  15.334  0.7831 -2.7150 -0.1185
    2ALA      C   15   5.185   8.054  15.579  0.0748  0.2182 -0.0299
    2ALA      O   16   5.297   8.097  15.579 -0.1122  0.7889  0.2331
    3ALA      N   17   5.167   7.927  15.633 -0.3343  0.2245  0.1031
    3ALA      H   18   5.253   7.874  15.640 -0.3668  0.0073 -0.9102
    3ALA     CA   19   5.045   7.859  15.678 -0.0087  0.5472  0.0167
    3ALA     HA   20   4.970   7.854  15.599 -0.0721 -3.1995  0.1679
    3ALA     CB   21   5.071   7.709  15.712  0.1946  0.1387 -0.0894
    3ALA    HB1   22   5.172   7.689  15.748 -0.3220 -1.6877  0.5041
    3ALA    HB2   23   5.006   7.684  15.796 -3.2961  2.9747 -1.6867
    3ALA    HB3   24   5.042   7.643  15.630 -3.2354  2.0034 -0.5528
    3ALA      C   25   4.992   7.927  15.810  0.2098  0.2745  0.1333
    3ALA      O   26   4.880   7.910  15.853  0.7121  0.2990 -0.2835
    4ALA      N   27   5.083   7.997  15.880  0.3204 -1.0762 -0.3227
    4ALA      H   28   5.179   8.004  15.848  0.4365  2.5536  0.4103
    4ALA     CA   29   5.067   8.066  16.009  0.0464  0.3823 -0.0922
    4ALA     HA   30   4.999   8.150  15.993  1.9670  2.3219  1.3499
    4ALA     CB   31   5.007   7.990  16.124  1.0284 -0.3222  0.4077
    4ALA    HB1   32   4.981   8.057  16.206 -0.6899  0.2084 -0.5204
    4ALA    HB2   33   4.908   7.955  16.097  1.1227 -0.2035 -0.1210
    4ALA    HB3   34   5.067   7.902  16.148 -1.4036 -2.1379  0.0701
    4ALA      C   35   5.205   8.123  16.057  0.1753 -0.5761 -0.2564
    4ALA      O   36   5.279   8.056  16.125 -0.0864  0.0751  0.4613
    5NME      N   37   5.235   8.256  16.026  0.2127  0.2042 -0.3923
    5NME      H   38   5.184   8.290  15.945  0.9845 -1.0221 -1.4449
    5NME    CH3   39   5.362   8.313  16.056 -0.0117 -0.1807 -0.3649
    5NME   HH31   40   5.381   8.402  15.997  1.7435  0.0525  0.4872
    5NME   HH32   41   5.365   8.332  16.164 -1.1791 -0.8971 -0.1892
    5NME   HH33   42   5.442   8.243  16.031  0.9038 -0.0293  1.8761
  20.91516  20.91516  20.91516
