Protein
   42
    1ACE   HH31    1   9.868   4.999   9.795  0.9971  0.5412  1.1813
    1ACE    CH3    2   9.928   4.951   9.717 -0.6557 -0.2445  0.3434
    1ACE   HH32    3   9.895   4.867   9.656  1.7023 -0.5438 -0.6402
    1ACE   HH33    4  10.021   4.919   9.764  1.7721  4.1516 -0.8771
    1ACE      C    5   9.972   5.070   9.643 -0.2296  0.0567 -0.3751
    1ACE      O    6  10.090   5.113   9.648 -0.1568  0.5223  0.4395
    2ALA      N    7   9.875   5.133   9.585  0.1115 -0.2170  0.4692
    2ALA      H    8   9.786   5.085   9.590 -1.1279  1.6688 -1.4526
    2ALA     CA    9   9.892   5.250   9.501 -0.5559  0.0222 -0.9803
    2ALA     HA   10   9.984   5.229   9.447  0.2085 -0.9064  0.6378
    2ALA     CB   11   9.782   5.255   9.396  0.1593 -0.0313  0.5853
    2ALA    HB1   12   9.774   5.170   9.327 -0.0983  1.7362 -1.7139
    2ALA    HB2   13   9.688   5.278   9.446 -1.6169  0.3409 -2.6142
    2ALA    HB3   14   9.796   5.334   9.322 -3.1995  0.1868  0.0221
    2ALA      C   15   9.914   5.385   9.568 -0.9511  0.0477 -0.1854
    2ALA      O   16   9.859   5.483   9.520  0.2820 -0.2232  0.1192
    3ALA      N   17   9.994   5.391   9.674 -0.3942  0.4216 -0.0993
    3ALA      H   18  10.036   5.301   9.691 -0.2791  0.5103  0.0923
    3ALA     CA   19  10.010   5.492   9.775  0.3191 -1.0115 -0.0175
    3ALA     HA   20   9.989   5.449   9.873  1.9207 -0.5334  0.5578
    3ALA     CB   21  10.153   5.526   9.792 -0.1823 -0.0236 -0.3272
    3ALA    HB1   22  10.208   5.439   9.828  0.8131  0.6965 -0.0579
    3ALA    HB2   23  10.192   5.566   9.699  0.2973  2.3215  0.8047
    3ALA    HB3   24  10.148   5.604   9.868 -3.0259  1.1915 -1.6070
    3ALA      C   25   9.930   5.628   9.756 -0.1514 -0.0764 -0.0593
    3ALA      O   26   9.839   5.649   9.838 -0.5806 -0.1935 -0.1074
    4ALA      N   27   9.958   5.715   9.659  0.1025 -0.0879 -0.2302
    4ALA      H   28  10.015   5.686   9.581 -1.9553  1.0545 -2.2781
    4ALA     CA   29   9.907   5.851   9.668  0.9459 -0.0359 -0.0911
    4ALA     HA   30   9.900   5.889   9.770  3.9062 -0.0117  0.1905
    4ALA     CB   31  10.009   5.953   9.590 -0.5131  0.5314  0.3419
    4ALA    HB1   32  10.035   5.913   9.493 -0.4343  0.4195  0.4089
    4ALA    HB2   33   9.959   6.050   9.590  0.5352  1.0786 -0.1552
    4ALA    HB3   34  10.100   5.972   9.647  0.4619 -0.2166 -0.9303
    4ALA      C   35   9.769   5.874   9.602 -0.7330 -0.4222  0.3047
    4ALA      O   36   9.726   5.987   9.592 -0.8360  0.4503  0.2536
    5NME      N   37   9.701   5.766   9.562 -0.7696 -0.2946 -0.0152
    5NME      H   38   9.752   5.679   9.570  1.6823  1.1703  1.6744
    5NME    CH3   39   9.558   5.779   9.532 -0.4091 -0.0377  0.3759
    5NME   HH31   40   9.512   5.682   9.549  2.0056 -1.2233  0.5286
    5NME   HH32   41   9.518   5.855   9.599  0.6165  1.3737 -0.5723
    5NME   HH33   42   9.540   5.811   9.429 -0.0407 -1.2411 -0.0858
  20.91516  20.91516  20.91516
