Protein
   42
    1ACE   HH31    1  12.547   9.601  12.903 -1.1497 -0.6388  0.0092
    1ACE    CH3    2  12.522   9.574  12.800  0.4460 -0.1511 -0.5372
    1ACE   HH32    3  12.414   9.564  12.790  0.5836 -0.1831 -2.2694
    1ACE   HH33    4  12.567   9.479  12.770  2.2698  0.2058  0.8492
    1ACE      C    5  12.568   9.686  12.706 -0.3022 -0.3848  0.0723
    1ACE      O    6  12.493   9.776  12.672  0.4684  0.0157 -0.4213
    2ALA      N    7  12.697   9.686  12.675 -0.4542 -0.2249  0.1558
    2ALA      H    8  12.753   9.605  12.699  1.2429  0.2842 -1.7636
    2ALA     CA    9  12.759   9.779  12.582  0.0865 -1.6622 -0.1443
    2ALA     HA   10  12.787   9.862  12.646  0.1288 -2.6456  1.1702
    2ALA     CB   11  12.894   9.716  12.526 -0.0025  0.1073  0.0970
    2ALA    HB1   12  12.876   9.644  12.446  0.8949  0.2569 -0.2479
    2ALA    HB2   13  12.965   9.796  12.506 -2.3152  2.4657  0.8062
    2ALA    HB3   14  12.935   9.652  12.604  0.3339  0.7126  0.4184
    2ALA      C   15  12.675   9.838  12.464  0.2147  0.2699 -0.1228
    2ALA      O   16  12.620   9.755  12.389 -0.1638  0.0310 -0.3476
    3ALA      N   17  12.661   9.970  12.440  0.1196  0.0510  0.3174
    3ALA      H   18  12.598   9.985  12.362  0.3845  1.3892  0.3390
    3ALA     CA   19  12.687  10.090  12.524  0.5222 -0.1662 -0.1307
    3ALA     HA   20  12.781  10.139  12.499  0.2518  1.2300  1.4013
    3ALA     CB   21  12.557  10.187  12.505 -0.7432  0.6946 -0.1347
    3ALA    HB1   22  12.564  10.267  12.579 -0.6845 -0.7442  1.4581
    3ALA    HB2   23  12.559  10.240  12.409 -0.9460  2.1696  0.6578
    3ALA    HB3   24  12.459  10.141  12.505 -0.0776 -0.7882 -0.8105
    3ALA      C   25  12.708  10.080  12.674 -0.0262 -0.2632  0.6920
    3ALA      O   26  12.805  10.136  12.728  0.2315 -0.2605  0.2503
    4ALA      N   27  12.614  10.013  12.747 -0.2478 -0.0808  0.2589
    4ALA      H   28  12.562   9.947  12.691  0.4712 -1.1222  0.7655
    4ALA     CA   29  12.595  10.004  12.890  0.2177 -0.3349 -0.4374
    4ALA     HA   30  12.499   9.955  12.900  1.1080 -2.0173  0.1625
    4ALA     CB   31  12.711   9.925  12.952  0.2205  0.0282 -0.0882
    4ALA    HB1   32  12.712   9.930  13.061  1.2940 -0.0433 -0.0830
    4ALA    HB2   33  12.698   9.818  12.934 -0.1631  0.0935 -0.2073
    4ALA    HB3   34  12.808   9.967  12.926 -0.4259  1.2679 -0.6065
    4ALA      C   35  12.565  10.139  12.959 -0.3664 -0.4510 -0.0579
    4ALA      O   36  12.463  10.148  13.030 -0.0228 -0.3631  0.1374
    5NME      N   37  12.648  10.245  12.939  0.2337 -0.5353 -0.3639
    5NME      H   38  12.725  10.234  12.874  0.9124 -1.3928  0.5340
    5NME    CH3   39  12.647  10.369  13.018  0.4736  0.1781  0.2475
    5NME   HH31   40  12.548  10.411  13.001 -0.0322 -0.6653  1.0036
    5NME   HH32   41  12.645  10.352  13.125 -0.0994  1.2941  0.4308
    5NME   HH33   42  12.731  10.432  12.990  1.7268 -1.4593  0.1435
  20.91516  20.91516  20.91516
