Protein
   32
    1ACE   HH31    1   8.009  11.609  10.552 -0.4935 -0.5946 -0.2414
    1ACE    CH3    2   8.078  11.627  10.470 -0.3055 -0.6739 -0.1019
    1ACE   HH32    3   8.180  11.637  10.505 -0.9262  2.4814  1.0670
    1ACE   HH33    4   8.051  11.728  10.440 -2.1920 -1.3005 -0.6476
    1ACE      C    5   8.046  11.523  10.365  0.0433  0.4824  0.1917
    1ACE      O    6   7.970  11.536  10.265 -0.2833 -0.7627 -0.0945
    2ALA      N    7   8.108  11.412  10.402  0.2608  0.9433 -0.1728
    2ALA      H    8   8.154  11.418  10.492 -1.8031  1.3674  0.9145
    2ALA     CA    9   8.106  11.277  10.337  0.0279  0.0403 -0.5180
    2ALA     HA   10   8.032  11.279  10.257  0.3693 -0.4237 -0.8566
    2ALA     CB   11   8.241  11.250  10.264  0.0756  0.3234 -0.4394
    2ALA    HB1   12   8.233  11.167  10.194 -1.7294 -0.0034  0.0808
    2ALA    HB2   13   8.286  11.331  10.208  2.2235 -1.2808 -1.1986
    2ALA    HB3   14   8.320  11.233  10.338  0.7973  2.2311 -0.7502
    2ALA      C   15   8.060  11.157  10.430 -0.3214  0.0584 -0.4764
    2ALA      O   16   8.107  11.145  10.542  0.1492 -0.3190  0.6305
    3ALA      N   17   7.969  11.079  10.371 -0.7099 -0.2002 -0.1077
    3ALA      H   18   7.949  11.110  10.277  1.0174 -1.0506 -0.7811
    3ALA     CA   19   7.910  10.953  10.412 -0.2577 -0.5424  0.4353
    3ALA     HA   20   7.822  10.963  10.476 -1.4187  0.8739 -1.2637
    3ALA     CB   21   7.862  10.885  10.279  0.9271  0.0244 -0.2817
    3ALA    HB1   22   7.947  10.875  10.211  0.1025  0.9502 -1.5054
    3ALA    HB2   23   7.808  10.793  10.299 -1.5943  0.9881 -2.2128
    3ALA    HB3   24   7.784  10.949  10.238  0.5060  0.7966  1.6270
    3ALA      C   25   8.009  10.862  10.494 -0.3798 -0.9781 -0.0613
    3ALA      O   26   8.086  10.779  10.444  0.1244 -0.5860 -0.4100
    4NME      N   27   8.003  10.883  10.628  0.3951 -0.2012  0.0380
    4NME      H   28   7.940  10.950  10.668  0.3713  0.6421 -1.3662
    4NME    CH3   29   8.102  10.828  10.715 -0.1123  0.2093  0.0683
    4NME   HH31   30   8.088  10.864  10.817 -2.4480  1.0270 -0.4947
    4NME   HH32   31   8.098  10.719  10.716 -0.2226  0.2112  1.3811
    4NME   HH33   32   8.201  10.860  10.682 -0.9896  1.2089 -1.7580
  20.99041  20.99041  20.99041
