Protein
   42
    1ACE   HH31    1  13.010  11.483  11.400  1.2124  3.4905  1.8121
    1ACE    CH3    2  12.910  11.524  11.415 -0.7627  0.0599 -0.5074
    1ACE   HH32    3  12.919  11.592  11.500  0.7803  2.3281 -2.3497
    1ACE   HH33    4  12.836  11.446  11.433 -0.2355  0.0643  2.0610
    1ACE      C    5  12.868  11.619  11.304  0.2247  0.0335  0.7795
    1ACE      O    6  12.750  11.649  11.288 -0.0016  0.1809  0.4465
    2ALA      N    7  12.963  11.667  11.229  0.2563 -0.0372  0.7616
    2ALA      H    8  13.055  11.628  11.240  0.2532 -0.3031 -0.0919
    2ALA     CA    9  12.938  11.743  11.107  0.4457 -0.7570  0.0520
    2ALA     HA   10  12.830  11.756  11.102  0.6817  1.3755 -0.6814
    2ALA     CB   11  13.007  11.884  11.123  0.3138  0.0183 -0.1930
    2ALA    HB1   12  12.997  11.924  11.224 -1.9732  0.0576 -0.3925
    2ALA    HB2   13  13.112  11.880  11.093 -0.1183  0.4087 -1.8576
    2ALA    HB3   14  12.956  11.955  11.058  0.5189 -0.7988 -1.2942
    2ALA      C   15  12.993  11.671  10.979  0.4045 -0.2022  0.2408
    2ALA      O   16  13.098  11.618  10.980 -0.2110  0.4284 -0.4250
    3ALA      N   17  12.925  11.673  10.866 -0.2369 -0.1090  0.1839
    3ALA      H   18  12.979  11.630  10.791  1.0283  1.4439  0.1529
    3ALA     CA   19  12.797  11.740  10.845 -0.2681  0.4498 -0.0168
    3ALA     HA   20  12.798  11.829  10.908  0.3948  0.0337  0.5834
    3ALA     CB   21  12.795  11.786  10.700  0.0478  0.1773 -0.0369
    3ALA    HB1   22  12.876  11.855  10.677  0.2656  0.1177  0.5326
    3ALA    HB2   23  12.805  11.701  10.632  2.0959  0.7351 -0.5177
    3ALA    HB3   24  12.698  11.826  10.671  0.8802  0.5163 -2.6644
    3ALA      C   25  12.678  11.657  10.877  0.0962  0.3468 -0.6907
    3ALA      O   26  12.580  11.661  10.802  0.2333  0.0412 -0.5614
    4ALA      N   27  12.672  11.594  10.994 -0.4734  0.2885 -0.4166
    4ALA      H   28  12.762  11.607  11.038 -0.2092  1.6544 -1.2806
    4ALA     CA   29  12.578  11.490  11.044  0.1518  0.2487  0.2954
    4ALA     HA   30  12.505  11.544  11.104  0.8129  0.0516  1.3071
    4ALA     CB   31  12.503  11.421  10.931 -0.3615 -0.2927 -0.1604
    4ALA    HB1   32  12.571  11.373  10.861 -0.1510  0.1797 -0.2812
    4ALA    HB2   33  12.448  11.341  10.980  0.3209 -0.2519  0.6815
    4ALA    HB3   34  12.438  11.489  10.876 -0.8136  0.2810  1.0685
    4ALA      C   35  12.653  11.384  11.134  0.0835  0.0062  0.3298
    4ALA      O   36  12.779  11.371  11.127  0.0056 -0.0488  0.3515
    5NME      N   37  12.585  11.300  11.209  0.0954  0.3666 -0.1803
    5NME      H   38  12.484  11.309  11.212  0.1652  1.3991 -0.4783
    5NME    CH3   39  12.637  11.192  11.289 -0.8480 -0.1900  0.6074
    5NME   HH31   40  12.595  11.193  11.389 -1.5716  1.4967  0.3289
    5NME   HH32   41  12.597  11.108  11.232 -0.7759 -0.5901  1.1347
    5NME   HH33   42  12.745  11.185  11.294 -0.7083 -0.3542 -1.5536
  20.91516  20.91516  20.91516
