Protein
   32
    1ACE   HH31    1   9.639  10.558   4.405  0.2868  0.6376 -0.1975
    1ACE    CH3    2   9.691  10.538   4.499 -0.1542  0.0167 -0.0770
    1ACE   HH32    3   9.657  10.438   4.528 -0.8912  0.5761  1.1153
    1ACE   HH33    4   9.659  10.608   4.576 -2.9777 -1.1257 -0.0872
    1ACE      C    5   9.845  10.521   4.476  1.0421 -0.5012 -0.5342
    1ACE      O    6   9.892  10.410   4.460  0.4765 -0.2638  0.3302
    2ALA      N    7   9.909  10.637   4.468 -0.8329 -0.4265 -0.7629
    2ALA      H    8   9.862  10.725   4.482 -0.4653 -0.3701  0.1620
    2ALA     CA    9  10.054  10.646   4.452 -0.9811 -0.2809  0.1664
    2ALA     HA   10  10.094  10.558   4.404  2.0860  0.8311  0.4829
    2ALA     CB   11  10.088  10.757   4.355  0.0125  0.4416  0.3180
    2ALA    HB1   12  10.055  10.724   4.257 -2.1274  2.0959  0.4000
    2ALA    HB2   13  10.038  10.849   4.385  0.9351  0.7566  0.9649
    2ALA    HB3   14  10.196  10.766   4.369  0.3484 -1.5775 -0.7043
    2ALA      C   15  10.119  10.651   4.591 -0.0495 -0.8560  0.0241
    2ALA      O   16  10.088  10.735   4.679  0.2779 -0.0641  0.2719
    3ALA      N   17  10.212  10.560   4.612  0.4005 -0.1284 -0.6245
    3ALA      H   18  10.246  10.501   4.537  0.4727 -2.1655  0.9317
    3ALA     CA   19  10.291  10.558   4.727 -0.2925  1.1735 -0.4522
    3ALA     HA   20  10.361  10.476   4.709 -0.9694  0.8629 -1.7898
    3ALA     CB   21  10.387  10.678   4.736  0.5622  0.1866  0.1996
    3ALA    HB1   22  10.335  10.770   4.708  2.3183  0.7347 -1.4881
    3ALA    HB2   23  10.434  10.700   4.831 -1.0419  2.5617  0.5426
    3ALA    HB3   24  10.458  10.673   4.654  0.9062  1.2174  0.4132
    3ALA      C   25  10.230  10.507   4.861  0.4309 -0.1807  0.5463
    3ALA      O   26  10.303  10.469   4.952  0.2141  0.0258 -0.0556
    4NME      N   27  10.098  10.500   4.870 -0.5018  0.1213  0.0201
    4NME      H   28  10.048  10.541   4.792  0.0086  1.6684  0.4699
    4NME    CH3   29  10.035  10.454   4.992  0.0818 -0.1721  0.1290
    4NME   HH31   30   9.931  10.428   4.973 -0.5231  2.0375  0.0070
    4NME   HH32   31  10.086  10.365   5.028 -0.2318  0.8159  3.2680
    4NME   HH33   32  10.041  10.534   5.066 -2.2288  0.4998 -0.3447
  20.99041  20.99041  20.99041
