Protein
   32
    1ACE   HH31    1  14.057   8.071  13.574 -0.3386 -0.9362  0.8994
    1ACE    CH3    2  13.990   8.145  13.617 -0.5332 -0.5427 -0.0682
    1ACE   HH32    3  13.946   8.112  13.710 -0.8983 -2.2109 -0.7980
    1ACE   HH33    4  13.909   8.172  13.549  0.1173  0.2742 -0.5395
    1ACE      C    5  14.081   8.268  13.644  0.1680 -0.2094 -0.6449
    1ACE      O    6  14.148   8.271  13.749 -0.1053 -0.1111 -0.4054
    2ALA      N    7  14.086   8.367  13.554 -0.2965  0.2471  0.3015
    2ALA      H    8  14.021   8.358  13.477 -0.8904 -2.5803  0.9998
    2ALA     CA    9  14.179   8.475  13.543  0.5654  0.6581  0.1957
    2ALA     HA   10  14.272   8.420  13.528 -0.8610 -1.8959  0.3124
    2ALA     CB   11  14.154   8.552  13.413  0.1321  0.1663  0.2831
    2ALA    HB1   12  14.169   8.489  13.325  2.1183 -1.3304  1.6085
    2ALA    HB2   13  14.061   8.609  13.424  1.3891  2.3710  0.1500
    2ALA    HB3   14  14.227   8.633  13.415 -0.1936  0.4807  0.0158
    2ALA      C   15  14.215   8.553  13.670  0.1146 -0.4101  0.1690
    2ALA      O   16  14.315   8.619  13.669 -0.3383 -0.9368  0.4513
    3ALA      N   17  14.146   8.540  13.785  0.2713  0.6498  0.8241
    3ALA      H   18  14.091   8.456  13.785  0.0672  0.7832  0.5824
    3ALA     CA   19  14.169   8.616  13.906 -0.0882 -0.1897  0.2958
    3ALA     HA   20  14.224   8.705  13.877  0.5776 -0.3744  0.9472
    3ALA     CB   21  14.033   8.662  13.962  0.2279  0.0628 -0.2766
    3ALA    HB1   22  13.982   8.570  13.992  1.2107 -0.0974  0.9254
    3ALA    HB2   23  14.045   8.722  14.052  1.5965 -0.0906 -0.3456
    3ALA    HB3   24  13.975   8.717  13.887  0.6013 -1.8734 -2.0964
    3ALA      C   25  14.250   8.534  14.007  0.0595  0.6926 -0.1495
    3ALA      O   26  14.197   8.478  14.106 -0.2268 -0.4150  0.0962
    4NME      N   27  14.379   8.529  13.979  0.2343  0.0965  0.4077
    4NME      H   28  14.407   8.566  13.889 -1.0931  0.9919  0.3438
    4NME    CH3   29  14.468   8.427  14.050 -0.1919  0.8107 -0.0445
    4NME   HH31   30  14.536   8.401  13.969 -0.5206  0.5817 -0.2521
    4NME   HH32   31  14.527   8.480  14.125  1.8542  1.9593 -2.3052
    4NME   HH33   32  14.409   8.345  14.088 -0.3884  1.7386  1.7516
  20.99041  20.99041  20.99041
