Protein
   32
    1ACE   HH31    1  13.840  14.330  16.291  2.1313  2.7013  1.3167
    1ACE    CH3    2  13.758  14.396  16.262 -0.0177 -0.0692  0.6004
    1ACE   HH32    3  13.665  14.342  16.250  0.6007 -0.6570 -2.2634
    1ACE   HH33    4  13.779  14.442  16.165 -2.3474 -2.9411 -1.4195
    1ACE      C    5  13.748  14.498  16.375  0.3842  0.4916 -0.1725
    1ACE      O    6  13.779  14.613  16.357 -0.0238  0.4083 -0.3029
    2ALA      N    7  13.701  14.450  16.489 -0.0874  0.2733 -0.1382
    2ALA      H    8  13.675  14.352  16.492 -0.8360  0.4721  1.9416
    2ALA     CA    9  13.703  14.524  16.619 -0.0246 -0.9713  0.9957
    2ALA     HA   10  13.725  14.626  16.589  0.5767 -2.0006 -2.5293
    2ALA     CB   11  13.556  14.527  16.661  0.3122  0.2791  0.1246
    2ALA    HB1   12  13.535  14.614  16.723  0.2108  0.2767  0.0958
    2ALA    HB2   13  13.486  14.529  16.577  1.4461  2.7744 -0.8750
    2ALA    HB3   14  13.536  14.440  16.723 -0.5588  2.8516  3.7939
    2ALA      C   15  13.802  14.472  16.723 -0.7220 -0.1564 -0.3982
    2ALA      O   16  13.922  14.435  16.701  0.7083 -0.3747  0.2504
    3ALA      N   17  13.759  14.474  16.846 -0.1772 -0.1643  0.8741
    3ALA      H   18  13.667  14.515  16.861  0.2347  1.3261 -0.4622
    3ALA     CA   19  13.832  14.428  16.966  0.4132  0.4979 -0.3782
    3ALA     HA   20  13.895  14.339  16.954  3.4546  2.1985  1.6590
    3ALA     CB   21  13.932  14.533  17.008 -0.1588  0.4624  0.0646
    3ALA    HB1   22  14.001  14.551  16.926  1.5404 -1.3720  0.9955
    3ALA    HB2   23  13.881  14.627  17.029 -0.3476  0.6315 -1.0760
    3ALA    HB3   24  13.989  14.504  17.096 -1.3110  0.7693  0.9520
    3ALA      C   25  13.721  14.402  17.073 -0.4254  0.2988  0.0870
    3ALA      O   26  13.601  14.428  17.049 -0.2523 -0.0265  0.1602
    4NME      N   27  13.763  14.359  17.191  0.3636 -0.4844  0.5769
    4NME      H   28  13.853  14.314  17.193  1.7744  2.0452 -0.4561
    4NME    CH3   29  13.670  14.348  17.305 -0.0094 -0.3942  0.1352
    4NME   HH31   30  13.600  14.265  17.290 -0.2739 -0.1075 -0.2333
    4NME   HH32   31  13.724  14.315  17.393  0.4679 -2.0367 -0.7251
    4NME   HH33   32  13.618  14.440  17.333  0.9199  0.8445 -2.0792
  20.99041  20.99041  20.99041
