<<<<<<< HEAD
Protein
   42
    1ACE   HH31    1  17.423  12.564  13.622 -1.0410  0.9970 -0.3777
    1ACE    CH3    2  17.491  12.566  13.537 -0.6071  0.7746 -0.0427
    1ACE   HH32    3  17.524  12.667  13.513  0.2262  0.5530  0.1262
    1ACE   HH33    4  17.430  12.538  13.451 -1.3815  0.2178  0.6833
    1ACE      C    5  17.607  12.465  13.566 -0.4412  0.2906  0.8904
    1ACE      O    6  17.601  12.354  13.511  0.0518  0.1869 -1.0142
    2ALA      N    7  17.712  12.502  13.643 -0.3896  0.2563 -0.1170
    2ALA      H    8  17.716  12.592  13.689 -3.0981 -0.2549  1.3479
    2ALA     CA    9  17.798  12.403  13.711 -0.2120 -0.0900  0.2815
    2ALA     HA   10  17.742  12.314  13.741  0.0909 -1.1343 -2.0348
    2ALA     CB   11  17.905  12.360  13.604 -0.3522 -0.0350 -0.1010
    2ALA    HB1   12  17.864  12.346  13.503  1.5400 -1.4356 -0.7421
    2ALA    HB2   13  17.985  12.434  13.599  0.3814 -0.7743  0.4285
    2ALA    HB3   14  17.957  12.266  13.623 -1.3460 -0.4589  0.6493
    2ALA      C   15  17.851  12.459  13.846 -0.4007  0.1547  0.2134
    2ALA      O   16  17.793  12.553  13.897 -0.3884 -0.4506  0.2473
    3ALA      N   17  17.956  12.397  13.896 -0.0494 -0.1310 -0.0887
    3ALA      H   18  18.000  12.324  13.842 -0.5373  0.3099 -1.1093
    3ALA     CA   19  18.042  12.445  14.006 -0.0855  0.3641 -0.4536
    3ALA     HA   20  18.054  12.553  14.000 -1.3854  0.4846 -1.2171
    3ALA     CB   21  17.968  12.408  14.136 -0.1768 -0.4822 -0.2028
    3ALA    HB1   22  17.880  12.472  14.127  1.0107  1.2410  0.0103
    3ALA    HB2   23  17.940  12.303  14.141 -1.0338 -0.2635  0.0409
    3ALA    HB3   24  18.024  12.437  14.225  1.5064  0.2612 -1.4486
    3ALA      C   25  18.186  12.385  14.002  0.0406  0.0122 -0.1990
    3ALA      O   26  18.211  12.312  13.906 -0.2010  0.4161 -0.1229
    4ALA      N   27  18.266  12.410  14.105  0.2352 -0.7290 -0.4339
    4ALA      H   28  18.231  12.481  14.168 -0.5813 -1.7593  0.3211
    4ALA     CA   29  18.408  12.371  14.119  0.2525  0.0436 -0.2691
    4ALA     HA   30  18.433  12.265  14.117  1.1607  0.2268  0.6248
    4ALA     CB   31  18.489  12.444  14.009 -0.0448 -0.3944  0.3818
    4ALA    HB1   32  18.597  12.432  14.022 -0.0611 -0.8866  0.1267
    4ALA    HB2   33  18.468  12.395  13.914  1.7278 -0.4812  0.0075
    4ALA    HB3   34  18.468  12.550  13.996  1.4925  0.1977  2.3226
    4ALA      C   35  18.450  12.430  14.252  0.3513  0.0750  0.2163
    4ALA      O   36  18.388  12.520  14.316 -0.3523 -0.1775 -0.2637
    5NME      N   37  18.570  12.379  14.299  0.9755  0.6933  0.6121
    5NME      H   38  18.625  12.329  14.231 -0.2243 -0.0403  0.1558
    5NME    CH3   39  18.616  12.400  14.436  0.5208  0.1631 -0.1250
    5NME   HH31   40  18.574  12.491  14.477 -0.4931  0.2547 -1.3106
    5NME   HH32   41  18.595  12.311  14.496 -1.8875  1.2197  0.7498
    5NME   HH33   42  18.722  12.424  14.424  0.1154  1.1537 -1.9141
  20.91516  20.91516  20.91516
=======
Protein
   42
    1ACE   HH31    1   8.118   2.850  14.649 -1.2569  0.2853  2.3177
    1ACE    CH3    2   8.184   2.909  14.713  0.1633  0.8483  0.4187
    1ACE   HH32    3   8.272   2.862  14.757 -0.4526 -0.3721  0.3841
    1ACE   HH33    4   8.130   2.949  14.798  1.0154  1.2767  0.7750
    1ACE      C    5   8.239   3.017  14.622  0.1435 -0.0338 -0.3540
    1ACE      O    6   8.336   3.000  14.552  0.0543  0.5060 -0.5149
    2ALA      N    7   8.173   3.129  14.612  0.0345 -0.5838  0.3614
    2ALA      H    8   8.092   3.138  14.673 -1.2165 -0.8122 -1.2007
    2ALA     CA    9   8.195   3.250  14.524 -0.2882  0.3962  0.4463
    2ALA     HA   10   8.112   3.318  14.544 -0.9811  0.0423 -1.0937
    2ALA     CB   11   8.321   3.328  14.570 -0.1054  0.2388 -0.1557
    2ALA    HB1   12   8.414   3.275  14.547  0.1946 -0.1245  1.6871
    2ALA    HB2   13   8.326   3.418  14.508  0.9581 -0.2288 -0.7722
    2ALA    HB3   14   8.322   3.357  14.676  0.5048  0.9270 -0.3389
    2ALA      C   15   8.189   3.234  14.367 -0.1303 -0.3757 -0.8608
    2ALA      O   16   8.150   3.320  14.293  0.5060 -0.5533  0.1234
    3ALA      N   17   8.209   3.115  14.315 -0.0038 -0.1276  0.0383
    3ALA      H   18   8.256   3.058  14.384  2.2602 -0.1257 -1.3862
    3ALA     CA   19   8.202   3.063  14.179  0.0972 -0.2074 -0.0684
    3ALA     HA   20   8.307   3.042  14.157 -0.6533 -2.7142 -1.7583
    3ALA     CB   21   8.138   2.926  14.175 -0.0685  0.3125  0.0036
    3ALA    HB1   22   8.213   2.866  14.227  1.4927  1.6557 -0.5858
    3ALA    HB2   23   8.046   2.920  14.233  0.1682  0.2453  0.3744
    3ALA    HB3   24   8.126   2.890  14.073 -1.7649  1.5538 -0.2754
    3ALA      C   25   8.140   3.158  14.075  0.4334  0.1383 -0.4602
    3ALA      O   26   8.019   3.161  14.080  0.1895  0.8930  0.3078
    4ALA      N   27   8.213   3.234  13.994 -0.4514  0.6493 -0.4477
    4ALA      H   28   8.309   3.248  14.022 -0.0442 -0.6024 -1.0912
    4ALA     CA   29   8.164   3.331  13.896 -0.1864  0.0627 -0.3095
    4ALA     HA   30   8.249   3.397  13.878 -0.4973 -0.1282 -2.9933
    4ALA     CB   31   8.146   3.257  13.761  0.6110 -0.8205 -0.1373
    4ALA    HB1   32   8.223   3.180  13.753  0.4122 -0.8371 -2.5333
    4ALA    HB2   33   8.047   3.213  13.757 -0.6212  1.5408  1.6556
    4ALA    HB3   34   8.144   3.330  13.680 -3.5385 -1.1586 -0.5073
    4ALA      C   35   8.047   3.431  13.938 -0.2669  0.1811  0.7012
    4ALA      O   36   7.995   3.486  13.844  0.3150 -0.0882 -0.2236
    5NME      N   37   8.028   3.462  14.062  0.4759  0.0911 -0.2089
    5NME      H   38   8.068   3.400  14.131 -1.9079 -0.9299  0.3439
    5NME    CH3   39   7.923   3.556  14.101 -0.0424 -0.6435 -0.1684
    5NME   HH31   40   7.929   3.572  14.208 -0.1444  2.3060 -0.5280
    5NME   HH32   41   7.939   3.649  14.047  3.3386 -1.2866 -0.5182
    5NME   HH33   42   7.821   3.520  14.088 -0.8786  0.6660  2.3368
  20.91516  20.91516  20.91516
>>>>>>> e505351e8895c44bcd67ad8436d05c0eaca14691
