Title
  129
    1AIB    CAY    1  19.521  21.616  19.385  0.4879 -0.0182  0.4136
    1AIB    HY1    2  19.526  21.688  19.300  0.7297 -0.4009  0.1061
    1AIB    HY2    3  19.418  21.612  19.426  0.1185  0.4970 -0.4191
    1AIB    HY3    4  19.559  21.515  19.359 -0.9630 -0.4107 -0.3067
    1AIB     CY    5  19.612  21.669  19.492  0.1900  0.0258  0.6487
    1AIB     OY    6  19.658  21.782  19.482 -0.3688 -0.1046 -0.7598
    1AIB      N    7  19.631  21.585  19.594 -0.1952  0.1721  0.3845
    1AIB     HN    8  19.592  21.494  19.583 -1.1361  0.7011 -0.8752
    1AIB     CA    9  19.715  21.601  19.713 -0.3592  0.3245  0.2775
    1AIB    CB1   10  19.735  21.463  19.792 -0.0873  0.2594  0.4107
    1AIB   HB11   11  19.652  21.460  19.866 -0.7907  2.0467 -0.2295
    1AIB   HB12   12  19.825  21.446  19.855  0.7990 -0.1059 -0.9228
    1AIB   HB13   13  19.713  21.376  19.728 -3.4805  1.2628  0.0253
    1AIB    CB2   14  19.649  21.718  19.804 -0.8931 -0.0457  0.5522
    1AIB   HB21   15  19.715  21.726  19.893  0.5421  0.7411 -0.5331
    1AIB   HB22   16  19.551  21.681  19.839 -2.8387  2.1847 -2.1811
    1AIB   HB23   17  19.646  21.813  19.747 -0.5868 -2.1951 -3.4294
    1AIB      C   18  19.860  21.640  19.665  0.3021 -0.9319  0.0699
    1AIB      O   19  19.913  21.734  19.723 -0.5759  0.5182 -0.5516
    2AIB      N   20  19.907  21.572  19.555 -0.2675  0.7622 -0.3498
    2AIB     HN   21  19.852  21.494  19.525 -1.1512  1.1976  0.0509
    2AIB     CA   22  20.038  21.599  19.497  0.1810  0.0073  0.4349
    2AIB    CB1   23  20.051  21.491  19.386 -0.6791  0.4988 -0.3123
    2AIB   HB11   24  20.034  21.392  19.432  0.9131 -0.0435 -0.8350
    2AIB   HB12   25  20.157  21.492  19.354 -0.2959  0.2314  0.9183
    2AIB   HB13   26  19.989  21.524  19.300  0.5807  3.1788 -0.2871
    2AIB    CB2   27  20.143  21.565  19.606  0.4160 -0.5375  0.3181
    2AIB   HB21   28  20.245  21.570  19.562 -0.1915 -0.0013 -1.0853
    2AIB   HB22   29  20.133  21.457  19.628  0.4844 -0.8161 -0.9364
    2AIB   HB23   30  20.144  21.640  19.688 -0.4360  2.0705 -1.8642
    2AIB      C   31  20.065  21.733  19.442  0.4391  0.0848 -0.6895
    2AIB      O   32  20.170  21.794  19.470 -0.1663  0.3138  0.8070
    3AIB      N   33  19.964  21.793  19.369  0.5137  0.6263 -0.4917
    3AIB     HN   34  19.891  21.733  19.339  2.3166 -0.4209 -3.2103
    3AIB     CA   35  19.958  21.919  19.307 -0.3889  0.3648 -0.1067
    3AIB    CB1   36  19.822  21.928  19.230 -1.0277  0.2188 -0.8948
    3AIB   HB11   37  19.746  21.925  19.312  0.4570 -1.2842  0.4776
    3AIB   HB12   38  19.795  21.840  19.169 -1.8177  0.3697 -0.7803
    3AIB   HB13   39  19.816  22.016  19.163 -0.9729  0.0824 -1.0782
    3AIB    CB2   40  20.071  21.941  19.197  0.6941  0.6580  0.4608
    3AIB   HB21   41  20.044  22.043  19.160 -1.0387  0.7875  1.8794
    3AIB   HB22   42  20.078  21.868  19.114 -0.5680 -0.0893  0.9840
    3AIB   HB23   43  20.170  21.946  19.247 -0.5421  0.9684  3.0124
    3AIB      C   44  19.959  22.025  19.415 -0.0236  0.1646 -0.0778
    3AIB      O   45  20.037  22.119  19.410  0.2603 -0.0426 -0.6156
    4AIB      N   46  19.871  22.020  19.518 -0.4053 -0.3915  0.9224
    4AIB     HN   47  19.812  21.944  19.543  2.5401 -2.6133  1.7695
    4AIB     CA   48  19.861  22.131  19.616 -0.5502  0.4668  0.2940
    4AIB    CB1   49  19.751  22.085  19.718 -0.4923  0.0463 -0.6352
    4AIB   HB11   50  19.773  21.989  19.769  0.3001  2.4334  3.9778
    4AIB   HB12   51  19.660  22.072  19.654  0.6366 -3.4845 -1.8100
    4AIB   HB13   52  19.736  22.159  19.798 -0.2403 -2.0423  1.4511
    4AIB    CB2   53  19.806  22.260  19.546  0.0340  0.6674  0.9292
    4AIB   HB21   54  19.785  22.330  19.630  2.0875 -0.4915  2.5113
    4AIB   HB22   55  19.714  22.255  19.485  1.4664 -0.7887 -1.2587
    4AIB   HB23   56  19.884  22.311  19.485  1.5863 -2.5050  0.1079
    4AIB      C   57  19.987  22.159  19.700  0.2875 -0.0240  0.4279
    4AIB      O   58  20.036  22.271  19.709  0.1736 -0.2554  0.0126
    5AIB      N   59  20.045  22.045  19.748 -0.0706  0.4717  0.2075
    5AIB     HN   60  20.010  21.954  19.730  0.4027  0.1585  0.8813
    5AIB     CA   61  20.171  22.038  19.804  1.3461 -0.4530 -1.2885
    5AIB    CB1   62  20.220  21.893  19.789 -0.3685 -0.0235 -0.4530
    5AIB   HB11   63  20.245  21.858  19.687  1.8170 -1.4023  0.4954
    5AIB   HB12   64  20.159  21.827  19.854  3.1611 -1.3595  1.8470
    5AIB   HB13   65  20.321  21.884  19.836 -0.7879 -0.6184  0.3639
    5AIB    CB2   66  20.155  22.076  19.956  0.0281  0.4130 -0.3196
    5AIB   HB21   67  20.246  22.093  20.017 -1.5286  1.4492  1.8258
    5AIB   HB22   68  20.107  21.990  20.007  0.6215 -0.2556 -0.8585
    5AIB   HB23   69  20.093  22.168  19.963 -0.6227  0.0834 -1.4312
    5AIB      C   70  20.286  22.125  19.734  0.3523  0.2981 -0.5087
    5AIB      O   71  20.335  22.225  19.788 -0.5640  0.0405  0.0357
    6AIB      N   72  20.317  22.083  19.604  0.0888 -0.8911  0.6519
    6AIB     HN   73  20.255  22.014  19.568 -0.4547 -0.4605  0.7510
    6AIB     CA   74  20.416  22.144  19.516 -0.4555  0.6247 -0.2827
    6AIB    CB1   75  20.404  22.090  19.369  0.1869  0.1563 -0.3521
    6AIB   HB11   76  20.305  22.104  19.320  1.3858  1.0974 -2.6425
    6AIB   HB12   77  20.441  21.986  19.361 -0.1239  0.1863 -2.6659
    6AIB   HB13   78  20.481  22.137  19.305  0.0216  3.5355  1.6686
    6AIB    CB2   79  20.553  22.117  19.575 -0.1185  0.2440  0.9075
    6AIB   HB21   80  20.629  22.096  19.497 -0.8001 -0.7622  0.4943
    6AIB   HB22   81  20.545  22.019  19.627  2.3204 -0.4500  0.1078
    6AIB   HB23   82  20.590  22.197  19.642  0.8421 -1.7757  2.9256
    6AIB      C   83  20.400  22.299  19.508  0.1850  0.9292  0.0804
    6AIB      O   84  20.494  22.381  19.512  0.0775  0.4529  0.3745
    7AIB      N   85  20.276  22.352  19.485  0.1003 -0.0355 -0.2226
    7AIB     HN   86  20.198  22.289  19.487  0.4407 -0.4521  1.7900
    7AIB     CA   87  20.233  22.492  19.472 -0.0633  0.0598  0.4060
    7AIB    CB1   88  20.077  22.510  19.482 -0.4118  0.5797 -0.5515
    7AIB   HB11   89  20.046  22.616  19.469 -2.4775 -0.1213 -1.8005
    7AIB   HB12   90  20.044  22.463  19.578  0.1205 -1.3385 -1.2400
    7AIB   HB13   91  20.036  22.448  19.399  1.3595 -1.1672 -0.1851
    7AIB    CB2   92  20.273  22.549  19.333 -0.7424  0.7483  0.3506
    7AIB   HB21   93  20.256  22.658  19.321  3.6063  1.6461  0.5599
    7AIB   HB22   94  20.227  22.492  19.250  0.6316  1.6209 -1.0382
    7AIB   HB23   95  20.383  22.536  19.320 -0.6787  0.6270  0.9456
    7AIB      C   96  20.294  22.576  19.580 -0.1874  0.1243  0.0523
    7AIB      O   97  20.359  22.674  19.545 -0.2156  0.1336  0.0718
    8AIB      N   98  20.295  22.541  19.707  1.0101 -1.1306  0.1953
    8AIB     HN   99  20.243  22.460  19.733 -2.6281  1.2809  1.0266
    8AIB     CA  100  20.333  22.621  19.816 -0.2798  0.4378  0.7533
    8AIB    CB1  101  20.306  22.541  19.949  0.2813  0.1830  0.6966
    8AIB   HB11  102  20.354  22.441  19.954  1.3943  0.6570  0.0029
    8AIB   HB12  103  20.198  22.515  19.947  0.5669 -0.9961 -1.9949
    8AIB   HB13  104  20.337  22.606  20.034  0.7157 -0.4260  1.0182
    8AIB    CB2  105  20.252  22.740  19.831  0.4968 -0.8570 -0.2593
    8AIB   HB21  106  20.266  22.790  19.929  1.0804  1.0013 -1.2717
    8AIB   HB22  107  20.149  22.700  19.814  1.2034 -2.6672 -0.6241
    8AIB   HB23  108  20.266  22.829  19.766 -0.3248  0.1791  0.9450
    8AIB      C  109  20.482  22.666  19.812  0.0060  0.2123 -0.3412
    8AIB      O  110  20.520  22.770  19.870  0.0652 -0.4274 -0.2699
    9AIB      N  111  20.576  22.585  19.749  0.6702  0.2589  0.0793
    9AIB     HN  112  20.540  22.505  19.701 -1.3906  0.9792  0.3374
    9AIB     CA  113  20.710  22.607  19.726 -0.3782 -0.0367  0.5016
    9AIB    CB1  114  20.772  22.470  19.707 -0.0997  0.5231 -0.5287
    9AIB   HB11  115  20.728  22.410  19.625  1.3354 -1.9057  0.3791
    9AIB   HB12  116  20.734  22.400  19.785 -1.0695 -0.1912 -1.5958
    9AIB   HB13  117  20.883  22.471  19.714 -0.1398 -0.3110  0.4824
    9AIB    CB2  118  20.782  22.681  19.840  0.1306  0.0779 -0.5771
    9AIB   HB21  119  20.747  22.784  19.861 -2.7994 -0.9340  0.0022
    9AIB   HB22  120  20.891  22.687  19.817  0.3847  2.5531  0.8882
    9AIB   HB23  121  20.767  22.623  19.934  1.3536 -0.5690 -0.7595
    9AIB      C  122  20.738  22.676  19.591  0.1992 -0.0582  0.0192
    9AIB      O  123  20.843  22.732  19.558 -0.1783 -0.4825  0.4494
    9AIB     NT  124  20.633  22.675  19.500 -0.3520 -0.8017  0.0504
    9AIB    HNT  125  20.541  22.649  19.529 -0.8946  0.1563 -0.7454
    9AIB    CAT  126  20.633  22.731  19.367 -0.2073  0.7194  0.4166
    9AIB    HT1  127  20.690  22.661  19.302  1.1089 -0.5535  2.7990
    9AIB    HT2  128  20.683  22.830  19.362  0.7026  0.1873 -2.1204
    9AIB    HT3  129  20.528  22.745  19.335  0.1790 -1.4314 -2.1402
  42.09246  42.09246  42.09246
