Protein
   32
    1ACE   HH31    1  12.415   8.068   8.782  0.2377 -0.7771 -1.8818
    1ACE    CH3    2  12.366   8.148   8.728  0.1181  0.1731 -0.4309
    1ACE   HH32    3  12.380   8.239   8.786 -1.1309 -0.5333  1.0365
    1ACE   HH33    4  12.259   8.127   8.720 -0.2552  1.8122  0.0240
    1ACE      C    5  12.431   8.147   8.590 -0.0554 -0.4270  0.5253
    1ACE      O    6  12.463   8.038   8.539  0.6452 -0.2425  0.4041
    2ALA      N    7  12.456   8.273   8.543  0.2004 -0.3699 -0.1105
    2ALA      H    8  12.438   8.350   8.606  1.2895 -0.7515  0.6967
    2ALA     CA    9  12.483   8.316   8.407  0.1607 -0.2764  0.1649
    2ALA     HA   10  12.399   8.372   8.365  0.3542  0.1647  0.3551
    2ALA     CB   11  12.596   8.415   8.423 -0.6192 -0.1188 -0.3092
    2ALA    HB1   12  12.672   8.371   8.487  0.1053  0.3275 -0.8461
    2ALA    HB2   13  12.649   8.440   8.331 -0.3378  1.0400  0.1468
    2ALA    HB3   14  12.573   8.508   8.475 -0.1534 -1.0472  1.6401
    2ALA      C   15  12.528   8.214   8.298  1.1525  0.4701  0.0497
    2ALA      O   16  12.457   8.192   8.196  0.2210  0.5061 -0.4029
    3ALA      N   17  12.634   8.139   8.324  0.2686  0.2581 -0.0707
    3ALA      H   18  12.680   8.156   8.413  0.8734 -0.3563 -0.2420
    3ALA     CA   19  12.670   8.012   8.249 -0.3225  0.5306  0.5635
    3ALA     HA   20  12.574   7.964   8.230  0.2013 -1.0043  1.5683
    3ALA     CB   21  12.729   8.042   8.117 -0.9378 -0.2276  0.0326
    3ALA    HB1   22  12.716   7.954   8.054 -2.0859  0.0797 -0.1877
    3ALA    HB2   23  12.669   8.119   8.068  0.8406  0.7420 -0.6694
    3ALA    HB3   24  12.830   8.084   8.114 -1.3601  0.7550 -1.3028
    3ALA      C   25  12.756   7.920   8.340  0.0787 -0.1166  0.0339
    3ALA      O   26  12.866   7.880   8.309 -0.1930 -0.0734  0.0700
    4NME      N   27  12.698   7.888   8.462  0.2142 -0.0818 -0.1673
    4NME      H   28  12.606   7.926   8.475 -0.6829 -2.0516 -0.4993
    4NME    CH3   29  12.736   7.782   8.549  0.1725  0.1713  0.0999
    4NME   HH31   30  12.718   7.687   8.498  0.7694 -0.7847  1.5645
    4NME   HH32   31  12.843   7.785   8.568  0.1496  0.8547  0.1258
    4NME   HH33   32  12.674   7.788   8.638  0.8958  0.8531  0.5748
  20.99041  20.99041  20.99041
