Protein
   32
    1ACE   HH31    1  11.844  12.734  10.634 -1.1358 -1.3566 -2.2968
    1ACE    CH3    2  11.887  12.831  10.611 -1.0703 -0.6119  0.6287
    1ACE   HH32    3  11.974  12.824  10.546 -0.8071 -0.7299  0.9839
    1ACE   HH33    4  11.925  12.883  10.700 -0.7236  2.7319 -1.2663
    1ACE      C    5  11.787  12.931  10.550  0.6595  0.3454  0.2494
    1ACE      O    6  11.805  13.050  10.557 -0.3949 -0.3069 -0.3497
    2ALA      N    7  11.687  12.879  10.480  0.3619  0.1217  0.4045
    2ALA      H    8  11.674  12.778  10.479  1.7201 -0.0696 -0.3932
    2ALA     CA    9  11.621  12.962  10.373  0.0741  0.6686 -0.5536
    2ALA     HA   10  11.702  13.023  10.332  0.9498  0.6842  1.1184
    2ALA     CB   11  11.573  12.875  10.256  0.5995  0.5355 -0.5318
    2ALA    HB1   12  11.650  12.801  10.235  0.2745 -0.2031  0.7672
    2ALA    HB2   13  11.482  12.819  10.280  0.8986  0.3440  0.1851
    2ALA    HB3   14  11.552  12.944  10.174 -2.0632  0.0730 -0.3289
    2ALA      C   15  11.515  13.057  10.424 -0.4362  0.1155 -1.1813
    2ALA      O   16  11.444  13.126  10.349 -0.0421  0.0529  0.0681
    3ALA      N   17  11.513  13.062  10.559  0.0333 -0.2873 -0.2964
    3ALA      H   18  11.559  12.997  10.622 -1.4223 -1.4753 -0.3961
    3ALA     CA   19  11.463  13.188  10.615 -0.7350  0.1514  0.2105
    3ALA     HA   20  11.356  13.199  10.597 -0.6255  0.5676 -0.2175
    3ALA     CB   21  11.474  13.187  10.767  0.5703 -0.5106  0.4618
    3ALA    HB1   22  11.580  13.182  10.791  0.5303  1.5379  1.3388
    3ALA    HB2   23  11.437  13.284  10.800  0.5043 -1.2656  2.7875
    3ALA    HB3   24  11.408  13.113  10.811 -0.6511  0.3134  0.0759
    3ALA      C   25  11.545  13.316  10.571  0.2204  0.3707  0.0139
    3ALA      O   26  11.501  13.426  10.585  0.8167 -0.0742 -0.2892
    4NME      N   27  11.667  13.301  10.519  0.2132 -0.6367 -0.2994
    4NME      H   28  11.715  13.212  10.525  0.9638 -0.3505 -1.6749
    4NME    CH3   29  11.738  13.409  10.447 -0.0878 -0.0134  0.0877
    4NME   HH31   30  11.664  13.480  10.409  1.2250  1.0559 -0.5928
    4NME   HH32   31  11.796  13.472  10.514 -0.8927  0.5428  0.2746
    4NME   HH33   32  11.799  13.382  10.361 -1.3729  1.4276 -1.3707
  20.99041  20.99041  20.99041
