Protein
   32
    1ACE   HH31    1   2.533  18.733   1.901 -0.7368 -0.0063 -0.6002
    1ACE    CH3    2   2.544  18.628   1.929 -0.3379 -0.0469 -0.9133
    1ACE   HH32    3   2.455  18.592   1.982 -0.6764  0.7389 -0.9309
    1ACE   HH33    4   2.625  18.614   2.001 -2.3001 -1.9387  1.0785
    1ACE      C    5   2.569  18.543   1.811  0.1096  0.5144  0.4382
    1ACE      O    6   2.678  18.485   1.807  0.3726 -0.9540 -0.2501
    2ALA      N    7   2.480  18.545   1.715  0.2128 -0.5971  0.8273
    2ALA      H    8   2.401  18.601   1.742  1.0534 -0.5349  3.3122
    2ALA     CA    9   2.510  18.517   1.570  0.2931  0.2711  0.8672
    2ALA     HA   10   2.617  18.528   1.554 -0.1041  0.9108 -1.6826
    2ALA     CB   11   2.465  18.376   1.532 -0.2882 -0.1278 -0.1093
    2ALA    HB1   12   2.485  18.346   1.429 -1.5902 -2.4392  0.2373
    2ALA    HB2   13   2.519  18.305   1.594  0.7461  0.8069  0.0741
    2ALA    HB3   14   2.358  18.372   1.553 -0.2766 -0.3613 -0.0881
    2ALA      C   15   2.431  18.619   1.479  0.4815  0.6487 -0.3130
    2ALA      O   16   2.384  18.719   1.535  0.0341  0.5279 -0.7052
    3ALA      N   17   2.400  18.590   1.355 -0.1848  0.1319  0.8433
    3ALA      H   18   2.424  18.503   1.311 -1.6199  0.6465 -1.1137
    3ALA     CA   19   2.335  18.687   1.263 -0.0267  0.0296  0.0144
    3ALA     HA   20   2.367  18.785   1.299 -2.1347  1.0227 -0.6917
    3ALA     CB   21   2.390  18.654   1.124 -0.2720 -0.2181  0.0223
    3ALA    HB1   22   2.494  18.624   1.132 -0.9222 -2.5905  0.3705
    3ALA    HB2   23   2.336  18.564   1.093 -1.5406  0.4450  0.1937
    3ALA    HB3   24   2.380  18.742   1.060  2.2165  0.0852 -0.0320
    3ALA      C   25   2.183  18.674   1.279  0.3477 -0.1504 -0.1750
    3ALA      O   26   2.120  18.583   1.225 -0.5454  0.3082 -0.5959
    4NME      N   27   2.130  18.774   1.341 -0.1033  0.0749 -0.2515
    4NME      H   28   2.192  18.839   1.387 -0.9185 -0.4139  1.5859
    4NME    CH3   29   1.991  18.813   1.328 -0.1630 -0.1192 -0.1291
    4NME   HH31   30   1.927  18.748   1.268 -0.9000  0.9909 -0.5917
    4NME   HH32   31   1.947  18.817   1.428  3.0335 -0.4608  1.4054
    4NME   HH33   32   1.985  18.914   1.286  1.0079 -0.0486 -0.1510
  20.99041  20.99041  20.99041
