Protein
   42
    1ACE   HH31    1  13.159  10.340  10.688 -0.4190 -2.7577 -0.5438
    1ACE    CH3    2  13.255  10.364  10.641 -0.7364 -0.4236 -0.1803
    1ACE   HH32    3  13.308  10.438  10.701  1.2438 -2.1813  0.3667
    1ACE   HH33    4  13.235  10.405  10.542 -2.8519  0.5176  0.5675
    1ACE      C    5  13.340  10.245  10.637 -0.0810  0.2710 -1.3325
    1ACE      O    6  13.419  10.228  10.544  0.3706 -0.1513 -0.1414
    2ALA      N    7  13.324  10.157  10.729  0.0305  0.0144 -0.3976
    2ALA      H    8  13.273  10.181  10.812 -0.6281 -2.9034  0.1475
    2ALA     CA    9  13.401  10.033  10.744 -0.3557 -0.5645  0.6027
    2ALA     HA   10  13.415   9.991  10.645 -2.1222  0.2670 -0.0361
    2ALA     CB   11  13.546  10.061  10.786  0.6556 -0.5529 -0.3093
    2ALA    HB1   12  13.601  10.118  10.710 -0.4928 -1.4158 -1.8441
    2ALA    HB2   13  13.538  10.103  10.886  1.8242 -0.9807 -0.0086
    2ALA    HB3   14  13.597   9.966  10.798  3.2180  0.6227 -0.9753
    2ALA      C   15  13.339   9.938  10.846  0.5542  0.3279 -0.4156
    2ALA      O   16  13.262   9.981  10.936 -0.2497 -0.4764  0.2202
    3ALA      N   17  13.354   9.802  10.843 -0.1344 -0.3448 -0.5673
    3ALA      H   18  13.301   9.750  10.911  0.0445  0.0819 -0.0977
    3ALA     CA   19  13.396   9.722  10.725  0.1837 -0.1336 -0.3523
    3ALA     HA   20  13.392   9.778  10.631  4.1686 -0.8842 -1.1636
    3ALA     CB   21  13.545   9.686  10.743 -0.3811 -0.7960 -0.0563
    3ALA    HB1   22  13.580   9.632  10.655 -0.2814 -0.9185  0.0563
    3ALA    HB2   23  13.598   9.774  10.778 -0.8119 -0.9765  1.0728
    3ALA    HB3   24  13.552   9.622  10.830  2.5038  0.5889  0.8289
    3ALA      C   25  13.315   9.594  10.713  0.0269 -0.0802  0.6184
    3ALA      O   26  13.257   9.548  10.806  0.2008  0.5762 -0.6045
    4ALA      N   27  13.326   9.534  10.590  0.5978 -0.3473  0.2867
    4ALA      H   28  13.372   9.599  10.527  1.5404  0.5793  1.8589
    4ALA     CA   29  13.273   9.412  10.526 -0.3943 -0.1884  0.0058
    4ALA     HA   30  13.286   9.428  10.419 -0.7007  1.5062  0.2022
    4ALA     CB   31  13.363   9.300  10.572  0.1481  0.3879  1.1764
    4ALA    HB1   32  13.349   9.283  10.678 -1.0278  4.0527  1.7418
    4ALA    HB2   33  13.354   9.213  10.507  0.3640  2.2300 -1.4926
    4ALA    HB3   34  13.467   9.332  10.562  0.0448  0.7462  1.2328
    4ALA      C   35  13.119   9.365  10.561 -0.4940 -0.3632 -0.1259
    4ALA      O   36  13.057   9.303  10.479  0.3251  0.3917  0.5407
    5NME      N   37  13.059   9.404  10.671 -0.4382  0.3726 -0.9624
    5NME      H   38  13.116   9.461  10.732 -3.0903  1.4609  0.6946
    5NME    CH3   39  12.919   9.367  10.718 -0.2010 -0.1210  0.0092
    5NME   HH31   40  12.853   9.387  10.633  2.7394  0.7033 -2.2484
    5NME   HH32   41  12.923   9.259  10.730 -1.1861  0.0984  2.8040
    5NME   HH33   42  12.906   9.418  10.813 -2.4720 -0.0085 -0.3082
  20.91516  20.91516  20.91516
