Protein
   32
    1ACE   HH31    1   9.968   5.306   7.443  0.5947  0.3962  1.9460
    1ACE    CH3    2   9.957   5.212   7.498  0.0265 -0.9831 -0.3763
    1ACE   HH32    3   9.989   5.120   7.450 -1.0262 -1.7045  0.2708
    1ACE   HH33    4   9.863   5.212   7.553 -0.7090 -0.7449 -1.6170
    1ACE      C    5  10.069   5.221   7.606 -0.5777 -0.1916  0.0542
    1ACE      O    6  10.038   5.256   7.721 -0.8722  0.2022  0.1669
    2ALA      N    7  10.193   5.190   7.571  0.6480 -0.1789  0.4306
    2ALA      H    8  10.203   5.149   7.479 -2.4403 -0.3388  0.0682
    2ALA     CA    9  10.312   5.196   7.649 -0.0963  0.4944  0.0656
    2ALA     HA   10  10.305   5.281   7.717  2.4253  1.7523 -1.1172
    2ALA     CB   11  10.332   5.063   7.723 -0.5717 -0.3153 -0.3328
    2ALA    HB1   12  10.253   5.048   7.795 -0.6657  0.8727 -0.1602
    2ALA    HB2   13  10.325   4.989   7.643  0.6818 -0.5008 -0.3001
    2ALA    HB3   14  10.425   5.063   7.780 -1.5755  1.6752  1.4184
    2ALA      C   15  10.435   5.226   7.563 -0.2404 -0.0190  0.1895
    2ALA      O   16  10.445   5.169   7.457 -0.1019 -0.0305  0.6599
    3ALA      N   17  10.531   5.306   7.617 -0.3051  0.2251 -0.2577
    3ALA      H   18  10.525   5.337   7.713 -1.3950 -0.1848 -0.1806
    3ALA     CA   19  10.668   5.318   7.561  0.4058  0.0546  0.6582
    3ALA     HA   20  10.675   5.253   7.474 -2.1601  0.2209  0.2566
    3ALA     CB   21  10.692   5.465   7.519  0.0070 -0.9156  0.0814
    3ALA    HB1   22  10.675   5.524   7.609 -1.1101  1.0786 -1.3538
    3ALA    HB2   23  10.789   5.481   7.471 -1.8474  0.3596 -3.6352
    3ALA    HB3   24  10.617   5.498   7.447 -1.4536 -2.6028  0.7521
    3ALA      C   25  10.771   5.266   7.660 -0.4564 -0.3714 -0.6363
    3ALA      O   26  10.732   5.236   7.776 -0.0733  0.8709  0.4087
    4NME      N   27  10.900   5.282   7.633  0.0207 -0.4216 -0.3337
    4NME      H   28  10.923   5.299   7.536  1.7497 -0.4700  0.0391
    4NME    CH3   29  11.015   5.250   7.723  0.7541 -0.0698  0.6083
    4NME   HH31   30  11.065   5.165   7.677 -0.1532 -0.1942 -0.1804
    4NME   HH32   31  11.077   5.340   7.721 -0.8555  1.0971 -2.1892
    4NME   HH33   32  10.975   5.232   7.823 -1.7549  0.7877 -0.1623
  20.99041  20.99041  20.99041
