Protein
   42
    1ACE   HH31    1  14.621  12.075  11.678 -0.8937 -1.4982 -0.6412
    1ACE    CH3    2  14.621  12.099  11.572  0.1394  0.0089 -0.3493
    1ACE   HH32    3  14.528  12.145  11.537 -0.0060  2.8127  3.1790
    1ACE   HH33    4  14.638  12.003  11.521  2.3641 -0.2948  0.8459
    1ACE      C    5  14.737  12.188  11.543 -0.4338 -0.1501 -0.5644
    1ACE      O    6  14.817  12.209  11.635 -0.1646  0.6357 -0.5787
    2ALA      N    7  14.742  12.238  11.421  0.6391 -0.3357 -0.3322
    2ALA      H    8  14.666  12.201  11.364 -1.7445  1.5931  1.3472
    2ALA     CA    9  14.821  12.344  11.367 -0.0597 -0.3444  0.7407
    2ALA     HA   10  14.790  12.367  11.265  0.0610 -1.3552  0.4705
    2ALA     CB   11  14.801  12.475  11.440  0.5431  0.2346  0.9293
    2ALA    HB1   12  14.872  12.548  11.402  0.0298 -0.1087 -0.8309
    2ALA    HB2   13  14.696  12.503  11.427 -0.2323 -2.0298  1.6958
    2ALA    HB3   14  14.831  12.474  11.544  0.3299 -1.1630  1.0081
    2ALA      C   15  14.971  12.315  11.346 -0.0650  0.4353  0.1207
    2ALA      O   16  15.029  12.380  11.256  0.1383  0.6814  0.0491
    3ALA      N   17  15.033  12.225  11.427  0.2657 -0.4028  0.3187
    3ALA      H   18  14.981  12.177  11.499  0.4704  0.7125  1.2445
    3ALA     CA   19  15.172  12.193  11.426 -0.0554 -0.4144  0.1689
    3ALA     HA   20  15.228  12.282  11.396  0.1128 -0.1302  1.2869
    3ALA     CB   21  15.208  12.141  11.566 -0.3848 -0.2670  0.3636
    3ALA    HB1   22  15.315  12.146  11.584 -0.6910  0.1051  2.3047
    3ALA    HB2   23  15.160  12.207  11.637 -1.4554  0.7151 -1.2140
    3ALA    HB3   24  15.171  12.039  11.580  3.2186 -1.6599  0.6051
    3ALA      C   25  15.209  12.088  11.317  0.7729  0.1881 -0.7454
    3ALA      O   26  15.281  11.988  11.338 -0.1219  0.3465 -0.4441
    4ALA      N   27  15.153  12.116  11.197 -0.1978 -0.1364  0.9823
    4ALA      H   28  15.100  12.202  11.194  0.8977  0.6083  1.6628
    4ALA     CA   29  15.123  12.025  11.084 -0.9400 -0.6019  0.3885
    4ALA     HA   30  15.186  12.061  11.003 -2.4989 -0.9282 -1.0028
    4ALA     CB   31  15.156  11.877  11.111  0.4833  0.6646 -0.3503
    4ALA    HB1   32  15.260  11.849  11.126 -0.2480 -3.1026 -1.4060
    4ALA    HB2   33  15.100  11.833  11.194  0.3584  0.5803 -0.4789
    4ALA    HB3   34  15.120  11.811  11.032 -0.1642  0.7146 -0.1092
    4ALA      C   35  14.988  12.050  11.026  0.3723 -0.4349  0.5095
    4ALA      O   36  14.893  12.084  11.102 -0.1754  0.1000 -0.5410
    5NME      N   37  14.963  12.047  10.893  0.2173  0.1440  0.1292
    5NME      H   38  15.046  12.043  10.835  0.7028  2.8105  0.4987
    5NME    CH3   39  14.847  12.092  10.813 -0.2208  0.0504 -0.3757
    5NME   HH31   40  14.858  12.199  10.796  0.2882  0.2559  1.1060
    5NME   HH32   41  14.854  12.046  10.714  1.1834 -0.6150  0.0062
    5NME   HH33   42  14.757  12.061  10.865  0.9273  0.5800  2.0162
  20.91516  20.91516  20.91516
