Protein
   32
    1ACE   HH31    1  11.941  13.019   6.790 -0.6821  2.3744 -0.1656
    1ACE    CH3    2  11.844  12.976   6.814  0.3269 -0.1177 -0.2052
    1ACE   HH32    3  11.841  12.894   6.887  1.3440 -0.7260 -0.8206
    1ACE   HH33    4  11.799  12.938   6.722  0.4528  0.5845 -0.5546
    1ACE      C    5  11.756  13.075   6.873  1.0317  0.2847 -0.8860
    1ACE      O    6  11.807  13.176   6.920  0.3109  0.6471  0.4531
    2ALA      N    7  11.629  13.038   6.896  0.2055  0.0777 -0.2764
    2ALA      H    8  11.601  12.948   6.858  0.3002  0.3132 -0.9152
    2ALA     CA    9  11.526  13.098   6.979  0.1321 -0.5107  0.2040
    2ALA     HA   10  11.566  13.163   7.056 -0.1481  3.5764 -2.7621
    2ALA     CB   11  11.443  13.189   6.882  0.0708  0.7690 -0.0550
    2ALA    HB1   12  11.365  13.249   6.929 -2.1662 -2.0248  0.1247
    2ALA    HB2   13  11.510  13.243   6.815 -0.3587 -2.2798 -3.2009
    2ALA    HB3   14  11.400  13.118   6.812 -3.7963  1.7236  1.1023
    2ALA      C   15  11.440  12.987   7.053 -0.4111 -0.3272  0.5213
    2ALA      O   16  11.437  12.871   7.010  0.2343 -0.7209  0.0532
    3ALA      N   17  11.357  13.028   7.150 -0.1156 -0.7310  0.2659
    3ALA      H   18  11.347  13.123   7.184 -0.2799 -1.1208  1.3363
    3ALA     CA   19  11.277  12.941   7.234  0.4383  0.6806  0.4398
    3ALA     HA   20  11.205  12.896   7.166  2.4871  0.9392 -2.0357
    3ALA     CB   21  11.364  12.841   7.311  0.6754 -0.7044 -0.0141
    3ALA    HB1   22  11.412  12.784   7.232  0.2622  0.3521 -1.0541
    3ALA    HB2   23  11.437  12.891   7.375  0.2759 -3.1140  2.5124
    3ALA    HB3   24  11.307  12.779   7.381  2.8451  0.3967  2.9393
    3ALA      C   25  11.199  13.021   7.339 -0.2474  0.1173  0.3352
    3ALA      O   26  11.247  13.123   7.397 -0.5533 -0.1263  0.4880
    4NME      N   27  11.074  12.982   7.368 -0.0186 -0.3462 -0.4474
    4NME      H   28  11.036  12.906   7.313  0.3750 -0.2376 -0.8714
    4NME    CH3   29  10.979  13.049   7.459  0.1791 -0.1571  0.6791
    4NME   HH31   30  10.882  13.033   7.411  0.7555  0.0916 -0.6017
    4NME   HH32   31  10.979  12.996   7.554  3.3551  0.8641  1.3768
    4NME   HH33   32  11.008  13.153   7.472 -1.0678  0.0522  2.1266
  20.99041  20.99041  20.99041
