Protein
   32
    1ACE   HH31    1   7.979  14.357  12.449 -2.3759 -1.2304  1.5887
    1ACE    CH3    2   7.980  14.313  12.349  0.6689  0.7005  0.5951
    1ACE   HH32    3   7.911  14.373  12.289 -0.0196  2.2966  2.8172
    1ACE   HH33    4   7.954  14.207  12.359  0.7489  0.7538  1.4619
    1ACE      C    5   8.116  14.309  12.294 -0.0457  0.4718 -0.0167
    1ACE      O    6   8.206  14.376  12.343 -0.4584 -0.2555 -0.6284
    2ALA      N    7   8.140  14.234  12.188 -0.0549 -0.1368  0.0590
    2ALA      H    8   8.058  14.192  12.146  1.0006 -0.4569 -1.7497
    2ALA     CA    9   8.266  14.214  12.119  0.2485 -0.6358  0.1140
    2ALA     HA   10   8.349  14.210  12.189  1.4126 -0.3384 -1.2105
    2ALA     CB   11   8.266  14.076  12.043  0.4333 -0.9810  0.5479
    2ALA    HB1   12   8.365  14.063  12.000  0.5581  0.2700  0.3907
    2ALA    HB2   13   8.236  14.003  12.118 -1.4636 -0.4531  0.3552
    2ALA    HB3   14   8.194  14.086  11.962  1.0570  2.7744  0.2434
    2ALA      C   15   8.298  14.329  12.024  0.5061 -0.3409 -0.4722
    2ALA      O   16   8.331  14.314  11.909 -0.3660  0.0693 -0.1967
    3ALA      N   17   8.280  14.451  12.074 -0.2137 -0.1620  0.3371
    3ALA      H   18   8.262  14.459  12.173 -1.8332 -0.6528  0.0966
    3ALA     CA   19   8.314  14.578  12.002 -0.4261 -0.0869  0.5051
    3ALA     HA   20   8.267  14.565  11.904 -0.1802  2.5688 -0.0296
    3ALA     CB   21   8.249  14.694  12.075 -0.5465  0.8997 -0.2216
    3ALA    HB1   22   8.271  14.705  12.182  1.6902  0.6930 -0.6063
    3ALA    HB2   23   8.287  14.788  12.035  0.3097  0.8049  0.3528
    3ALA    HB3   24   8.142  14.685  12.061 -0.5305  1.7763 -1.0330
    3ALA      C   25   8.464  14.602  11.979  0.1261  0.4372 -0.0037
    3ALA      O   26   8.508  14.621  11.866 -0.0264 -0.1631 -0.2492
    4NME      N   27   8.537  14.612  12.089 -0.0419  0.0259 -0.1533
    4NME      H   28   8.482  14.588  12.171 -0.7817  1.7178 -0.1224
    4NME    CH3   29   8.682  14.641  12.092 -0.5618 -0.7664 -0.3531
    4NME   HH31   30   8.725  14.660  12.190  1.2615  0.3660 -1.3167
    4NME   HH32   31   8.747  14.576  12.033  0.3741  0.4955 -0.7540
    4NME   HH33   32   8.689  14.730  12.029  2.1738 -0.7576 -0.1716
  20.99041  20.99041  20.99041
