Protein
   32
    1ACE   HH31    1  12.107   4.982  12.010 -0.0369 -0.3698 -2.3203
    1ACE    CH3    2  12.005   5.019  12.025  0.2586 -0.1753 -0.6817
    1ACE   HH32    3  12.000   5.123  12.058  0.1257  0.7692 -3.4650
    1ACE   HH33    4  11.955   4.968  12.108 -0.0485  0.4504 -0.4778
    1ACE      C    5  11.911   5.011  11.904  0.0868 -0.5028 -0.6880
    1ACE      O    6  11.800   5.058  11.918  0.4489 -0.5391 -0.1653
    2ALA      N    7  11.944   4.943  11.798 -0.0802  0.3137  0.0414
    2ALA      H    8  12.035   4.900  11.793  0.8570  1.4496  4.0365
    2ALA     CA    9  11.857   4.929  11.682  0.3364 -0.6439 -0.7039
    2ALA     HA   10  11.832   5.026  11.639 -0.4234 -0.6435 -0.2764
    2ALA     CB   11  11.935   4.853  11.574 -0.1216  0.3783 -0.2227
    2ALA    HB1   12  11.971   4.758  11.613 -1.5456 -1.0469 -2.1771
    2ALA    HB2   13  11.866   4.828  11.494 -1.2913  1.0256  0.5671
    2ALA    HB3   14  12.012   4.916  11.529  0.5479 -0.6336 -0.5082
    2ALA      C   15  11.732   4.852  11.718  1.0200  0.6949 -0.3078
    2ALA      O   16  11.734   4.737  11.736 -0.1603  0.1297 -0.2485
    3ALA      N   17  11.617   4.919  11.711  0.0167  0.2220 -0.4103
    3ALA      H   18  11.626   5.019  11.697  1.0467  0.3587  0.9647
    3ALA     CA   19  11.485   4.870  11.724 -0.4349 -0.7239  0.0523
    3ALA     HA   20  11.485   4.790  11.798  1.3812  0.2438  1.1657
    3ALA     CB   21  11.412   4.986  11.785 -0.3572  0.3582  0.6702
    3ALA    HB1   22  11.475   5.031  11.861  2.3372 -1.0493 -0.5785
    3ALA    HB2   23  11.385   5.063  11.713  1.7146  0.0274 -0.5423
    3ALA    HB3   24  11.320   4.947  11.829 -1.0994  1.9030  0.5554
    3ALA      C   25  11.430   4.822  11.581 -0.1049  0.4546 -0.1626
    3ALA      O   26  11.505   4.813  11.489 -0.2480 -0.4908 -0.6590
    4NME      N   27  11.298   4.812  11.568 -0.4322 -0.4015 -0.0605
    4NME      H   28  11.230   4.837  11.638 -1.1896 -0.8747 -0.5927
    4NME    CH3   29  11.235   4.802  11.438 -1.1827  0.3177  0.2540
    4NME   HH31   30  11.136   4.756  11.446 -1.1635  0.1910 -0.1771
    4NME   HH32   31  11.223   4.900  11.390  1.5064 -0.5789 -2.5199
    4NME   HH33   32  11.295   4.746  11.367 -1.8373  1.1683 -1.0115
  20.99041  20.99041  20.99041
