Protein
   42
    1ACE   HH31    1  13.039  15.479  10.158 -2.1144  0.1607  0.5969
    1ACE    CH3    2  13.035  15.370  10.169  0.1193  0.0250  0.3988
    1ACE   HH32    3  13.134  15.329  10.147 -0.1146 -0.8935  0.9816
    1ACE   HH33    4  12.955  15.325  10.111 -1.9257  1.6764  1.7711
    1ACE      C    5  13.011  15.324  10.314 -0.4694 -0.2670  0.7210
    1ACE      O    6  12.928  15.235  10.325 -0.2400 -0.1964 -0.3677
    2ALA      N    7  13.070  15.388  10.412  0.1982 -0.2751  0.0214
    2ALA      H    8  13.138  15.462  10.397  0.8954 -1.0452 -0.6460
    2ALA     CA    9  13.040  15.360  10.549  0.6980 -1.1805  0.8907
    2ALA     HA   10  13.104  15.273  10.566  1.3094 -0.6717  1.2365
    2ALA     CB   11  13.091  15.476  10.641 -0.4888  0.1012 -0.1068
    2ALA    HB1   12  13.076  15.446  10.745 -0.7725 -0.4121 -0.2894
    2ALA    HB2   13  13.194  15.509  10.636 -0.2054 -0.0419  2.7446
    2ALA    HB3   14  13.032  15.567  10.629 -1.8813 -0.8675 -0.9626
    2ALA      C   15  12.887  15.331  10.580 -0.5944 -0.1614 -0.2972
    2ALA      O   16  12.810  15.424  10.567 -0.0671  0.1537  0.5674
    3ALA      N   17  12.846  15.225  10.648  0.5813 -0.3696 -0.5757
    3ALA      H   18  12.754  15.247  10.683  1.0800  0.2376  0.4400
    3ALA     CA   19  12.890  15.094  10.695  0.3596 -0.0769  0.0274
    3ALA     HA   20  12.900  15.106  10.803 -3.4703  0.3297  0.4825
    3ALA     CB   21  12.785  14.989  10.680  0.1192  1.0675 -0.5704
    3ALA    HB1   22  12.702  15.017  10.744  1.0629 -0.4191  1.4227
    3ALA    HB2   23  12.750  14.975  10.577 -2.1380  1.6889  0.0424
    3ALA    HB3   24  12.818  14.894  10.723 -2.2330 -0.1358 -1.1844
    3ALA      C   25  13.024  15.039  10.630 -0.0555  0.7797 -0.7212
    3ALA      O   26  13.118  15.008  10.703 -0.0366  0.4476  0.0414
    4ALA      N   27  13.039  15.030  10.496  0.5283 -0.4584  0.2888
    4ALA      H   28  12.965  15.058  10.433 -0.1483 -0.8531  0.8934
    4ALA     CA   29  13.167  14.988  10.434  0.7489 -0.2376  0.2349
    4ALA     HA   30  13.211  14.901  10.481  1.8272  0.1863  0.0227
    4ALA     CB   31  13.131  14.954  10.290 -0.6573 -0.1777 -0.8220
    4ALA    HB1   32  13.208  14.975  10.216 -2.6110 -0.4816 -3.0927
    4ALA    HB2   33  13.099  14.850  10.278  0.2093 -0.4991 -0.4264
    4ALA    HB3   34  13.047  15.010  10.249 -1.6395 -0.8720  0.1459
    4ALA      C   35  13.274  15.100  10.455  0.4099 -0.7488 -0.0042
    4ALA      O   36  13.289  15.188  10.370  0.8659 -0.6394  0.1122
    5NME      N   37  13.331  15.117  10.574  0.7687 -0.2907 -0.4322
    5NME      H   38  13.290  15.067  10.651  2.4544  0.3877  0.9616
    5NME    CH3   39  13.421  15.225  10.602 -1.3110 -1.1711  0.5713
    5NME   HH31   40  13.363  15.312  10.632 -1.5164 -1.0932 -0.0369
    5NME   HH32   41  13.485  15.199  10.686 -0.5875  0.1612  0.4499
    5NME   HH33   42  13.472  15.252  10.510 -2.3910  1.3965  0.6170
  20.91516  20.91516  20.91516
