Protein
   32
    1ACE   HH31    1  11.633   9.300  11.016 -1.0340 -1.7557  0.9514
    1ACE    CH3    2  11.560   9.368  11.062 -0.1785 -0.0648 -0.0841
    1ACE   HH32    3  11.567   9.359  11.170 -1.0359 -1.9078 -0.1363
    1ACE   HH33    4  11.457   9.350  11.032 -0.7229  0.6344  1.2732
    1ACE      C    5  11.593   9.508  11.031 -0.3991  0.1799 -0.0532
    1ACE      O    6  11.540   9.556  10.935  0.4808 -0.4502  0.1039
    2ALA      N    7  11.678   9.571  11.112  0.2713  0.3931  0.0201
    2ALA      H    8  11.733   9.509  11.170 -1.9792 -0.4571  1.3594
    2ALA     CA    9  11.716   9.708  11.111 -0.2227  0.6259  0.7598
    2ALA     HA   10  11.630   9.760  11.153 -1.2442 -0.3635 -0.0420
    2ALA     CB   11  11.836   9.730  11.208  0.2924  0.6423  0.2431
    2ALA    HB1   12  11.865   9.835  11.205  2.1464  0.1816  0.7288
    2ALA    HB2   13  11.800   9.695  11.304 -3.9617  1.6470 -0.7864
    2ALA    HB3   14  11.927   9.676  11.180 -0.4784 -1.4924  1.6824
    2ALA      C   15  11.748   9.772  10.969  0.6112 -0.0171  0.8175
    2ALA      O   16  11.857   9.752  10.915  0.5263 -0.0602  0.2871
    3ALA      N   17  11.651   9.829  10.898  0.4697 -0.1222 -0.0484
    3ALA      H   18  11.559   9.830  10.939  1.1435  0.8393  1.5019
    3ALA     CA   19  11.666   9.890  10.762  0.0309  0.1853 -0.0403
    3ALA     HA   20  11.566   9.933  10.749  0.0062  0.6266  1.4855
    3ALA     CB   21  11.759  10.017  10.774 -0.1546  0.0992  0.0951
    3ALA    HB1   22  11.865   9.992  10.779 -0.2981 -0.3059  1.4610
    3ALA    HB2   23  11.736  10.078  10.686  0.6049 -0.6182 -0.6290
    3ALA    HB3   24  11.731  10.069  10.866  0.6691 -3.4738  2.5454
    3ALA      C   25  11.690   9.787  10.648 -0.3698  0.5358  0.3953
    3ALA      O   26  11.755   9.820  10.555 -0.0807  0.0477  0.1307
    4NME      N   27  11.628   9.668  10.661 -0.2532  0.4135  0.0061
    4NME      H   28  11.616   9.632  10.755 -2.0628  3.3825  1.0860
    4NME    CH3   29  11.608   9.574  10.550 -0.4462 -0.4544  0.1061
    4NME   HH31   30  11.544   9.622  10.476 -0.2587  1.2846  1.0267
    4NME   HH32   31  11.707   9.548  10.512 -0.1964  1.5267 -0.7434
    4NME   HH33   32  11.562   9.480  10.579 -1.2516  0.0088  0.3741
  20.99041  20.99041  20.99041
