Protein
   42
    1ACE   HH31    1   6.289   3.669  15.116 -0.0110  0.9857  1.4456
    1ACE    CH3    2   6.398   3.664  15.124  0.0709 -0.3943 -0.0437
    1ACE   HH32    3   6.426   3.769  15.136  0.8512 -0.5617 -0.3343
    1ACE   HH33    4   6.428   3.628  15.025 -1.9692 -0.5486 -0.6572
    1ACE      C    5   6.453   3.579  15.243  0.0169 -0.3506  0.0294
    1ACE      O    6   6.533   3.485  15.215  0.1342 -0.0333 -0.5337
    2ALA      N    7   6.417   3.624  15.367  0.7510 -0.2088  0.4912
    2ALA      H    8   6.377   3.717  15.363  0.9824 -0.1440 -0.9804
    2ALA     CA    9   6.455   3.578  15.502 -0.5304  0.3708  0.1549
    2ALA     HA   10   6.425   3.474  15.511  1.3762 -0.2473 -0.2041
    2ALA     CB   11   6.606   3.600  15.518 -0.3176 -0.3814 -0.0531
    2ALA    HB1   12   6.663   3.534  15.452 -0.9258 -2.4825  1.4282
    2ALA    HB2   13   6.632   3.703  15.497  1.0570 -1.0113 -1.6986
    2ALA    HB3   14   6.629   3.585  15.623 -0.9589  0.9884  0.2965
    2ALA      C   15   6.383   3.670  15.607  0.0657  0.0054  0.3651
    2ALA      O   16   6.406   3.793  15.611  0.1272 -0.3584 -0.2835
    3ALA      N   17   6.293   3.618  15.693 -0.1587  0.1347 -0.1342
    3ALA      H   18   6.244   3.686  15.749 -0.9807 -0.7857  0.2975
    3ALA     CA   19   6.252   3.477  15.712  0.4544  0.5760 -0.1412
    3ALA     HA   20   6.251   3.438  15.610  0.1900  0.1262  0.0293
    3ALA     CB   21   6.349   3.405  15.799 -0.0291  0.8694  0.0645
    3ALA    HB1   22   6.310   3.305  15.818 -0.6430  1.1443  0.3048
    3ALA    HB2   23   6.440   3.386  15.742  0.2861 -1.2115  1.1716
    3ALA    HB3   24   6.362   3.467  15.888 -2.9051  2.1521 -0.2844
    3ALA      C   25   6.119   3.466  15.786  0.5673  0.4019  0.0691
    3ALA      O   26   6.091   3.546  15.873  0.0326  0.3195  0.0038
    4ALA      N   27   6.039   3.361  15.753  0.1557 -0.4113  0.1320
    4ALA      H   28   6.077   3.290  15.692  1.2609 -1.0444  1.5209
    4ALA     CA   29   5.917   3.322  15.817 -0.1890 -0.2834  0.7615
    4ALA     HA   30   5.863   3.412  15.847 -1.7417 -1.5394  1.9494
    4ALA     CB   31   5.818   3.263  15.712 -0.3308 -0.0945 -0.2794
    4ALA    HB1   32   5.724   3.245  15.764  0.8490 -1.0208  1.6417
    4ALA    HB2   33   5.787   3.330  15.632 -0.6983 -0.2075 -0.2322
    4ALA    HB3   34   5.860   3.171  15.671 -0.8033 -0.7196  0.6116
    4ALA      C   35   5.942   3.243  15.953  0.6285 -0.0950  0.3412
    4ALA      O   36   5.894   3.130  15.971 -0.7171  0.0626 -0.0441
    5NME      N   37   6.027   3.301  16.040 -0.5005 -0.6505 -0.0650
    5NME      H   38   6.067   3.390  16.015  0.3772 -1.3303 -1.1256
    5NME    CH3   39   6.055   3.247  16.179 -0.0902  0.5861  0.0063
    5NME   HH31   40   5.969   3.196  16.223 -1.3747  0.6623 -2.1941
    5NME   HH32   41   6.131   3.169  16.169 -0.0901  0.7499 -1.4949
    5NME   HH33   42   6.088   3.316  16.256 -0.4684 -1.3000  1.9730
  20.91516  20.91516  20.91516
