Protein
   32
    1ACE   HH31    1  14.342   6.755   9.614 -2.0662 -1.3049 -3.6937
    1ACE    CH3    2  14.418   6.792   9.544  0.4472  0.0429 -0.4965
    1ACE   HH32    3  14.519   6.777   9.581  0.3577 -1.1133 -0.6864
    1ACE   HH33    4  14.401   6.898   9.524  1.1260  0.2440 -0.0285
    1ACE      C    5  14.414   6.712   9.421  0.3291 -0.5587 -0.1306
    1ACE      O    6  14.498   6.624   9.415  0.1033 -0.1302 -0.1091
    2ALA      N    7  14.331   6.745   9.321  0.1322  0.5358 -0.0527
    2ALA      H    8  14.256   6.812   9.333  0.9403  1.4687 -0.0776
    2ALA     CA    9  14.350   6.694   9.182  0.2929 -0.3458  0.0546
    2ALA     HA   10  14.451   6.653   9.177  0.3232 -0.2901  0.1524
    2ALA     CB   11  14.249   6.580   9.152 -0.1937 -0.3625  0.1340
    2ALA    HB1   12  14.146   6.611   9.134 -0.2939 -0.8428 -0.1400
    2ALA    HB2   13  14.285   6.531   9.062  0.3990 -1.9485  1.1889
    2ALA    HB3   14  14.256   6.516   9.240  0.0033  0.9853  1.1397
    2ALA      C   15  14.335   6.811   9.083 -0.3396 -0.1886 -0.3609
    2ALA      O   16  14.233   6.884   9.097  0.7509  0.4530 -0.4368
    3ALA      N   17  14.441   6.839   9.011  0.9260 -0.4312 -0.1826
    3ALA      H   18  14.503   6.764   8.986  0.9789 -0.2641 -0.5557
    3ALA     CA   19  14.431   6.946   8.907  0.7015  0.4386 -0.6445
    3ALA     HA   20  14.368   7.023   8.953 -3.9694 -2.4911 -1.4752
    3ALA     CB   21  14.571   6.992   8.870 -0.3347  0.6298  0.4584
    3ALA    HB1   22  14.630   6.916   8.820 -1.7271  0.4466 -1.0238
    3ALA    HB2   23  14.549   7.068   8.796 -2.2583 -0.4737 -0.1792
    3ALA    HB3   24  14.627   7.022   8.959 -0.2866 -2.1723  1.4849
    3ALA      C   25  14.347   6.890   8.783  0.7639 -0.3967 -0.4703
    3ALA      O   26  14.398   6.904   8.673  0.2194 -0.3492  0.4172
    4NME      N   27  14.216   6.855   8.803 -0.1701  0.0135  0.0348
    4NME      H   28  14.185   6.866   8.898  3.5900 -0.1984  1.4762
    4NME    CH3   29  14.138   6.774   8.707 -0.2059 -0.1260 -0.0409
    4NME   HH31   30  14.030   6.785   8.718 -0.2022 -0.4672  0.3309
    4NME   HH32   31  14.152   6.799   8.602 -0.7267 -1.2167 -0.3853
    4NME   HH33   32  14.175   6.672   8.719  2.9899  0.5804 -2.4751
  20.99041  20.99041  20.99041
