Protein
   32
    1ACE   HH31    1  10.746  10.518  14.132  3.0018 -1.1132  0.3648
    1ACE    CH3    2  10.772  10.624  14.139 -0.4900 -0.0402 -0.6572
    1ACE   HH32    3  10.876  10.631  14.170 -0.8526 -0.7282  0.7901
    1ACE   HH33    4  10.714  10.686  14.207  1.0314  0.6953  0.0075
    1ACE      C    5  10.753  10.695  14.005 -0.6797 -0.7473  0.4704
    1ACE      O    6  10.847  10.728  13.934  0.0484 -0.1145 -0.4935
    2ALA      N    7  10.629  10.721  13.971  0.0745 -0.3092 -0.1288
    2ALA      H    8  10.559  10.690  14.038 -1.9780  0.1612 -1.9353
    2ALA     CA    9  10.570  10.782  13.850  0.1139 -0.2491 -0.6084
    2ALA     HA   10  10.643  10.771  13.769  3.3152 -0.9212  2.1333
    2ALA     CB   11  10.441  10.693  13.814 -0.8221 -0.0170 -1.3217
    2ALA    HB1   12  10.389  10.734  13.728  0.7517  0.8843 -1.8952
    2ALA    HB2   13  10.473  10.591  13.791 -0.5761 -0.9831  2.6401
    2ALA    HB3   14  10.382  10.692  13.905  0.6989  0.2975 -0.3045
    2ALA      C   15  10.541  10.931  13.882  0.4555 -0.0796  0.2735
    2ALA      O   16  10.426  10.964  13.905  0.4278  0.7960 -0.4091
    3ALA      N   17  10.644  11.015  13.905  0.1426  0.3834 -0.0183
    3ALA      H   18  10.739  10.989  13.883 -0.6146 -1.4313 -1.2630
    3ALA     CA   19  10.630  11.159  13.946  0.2989  0.2168  0.3499
    3ALA     HA   20  10.537  11.170  14.002 -1.7897 -3.6049 -1.9040
    3ALA     CB   21  10.748  11.207  14.022 -0.0631 -0.4798  0.5306
    3ALA    HB1   22  10.731  11.308  14.058 -1.5251 -0.1158 -1.0513
    3ALA    HB2   23  10.757  11.145  14.111 -1.6658  0.3869  1.3445
    3ALA    HB3   24  10.838  11.215  13.960  2.0117 -1.8695  3.1819
    3ALA      C   25  10.594  11.248  13.821  1.1227 -0.1672 -0.6289
    3ALA      O   26  10.624  11.365  13.828 -0.7808 -0.0898  1.0165
    4NME      N   27  10.516  11.202  13.724 -0.3343 -0.3378  0.6004
    4NME      H   28  10.479  11.109  13.736  0.9720 -0.9497  0.1739
    4NME    CH3   29  10.463  11.290  13.619 -0.0337  0.1997  0.1929
    4NME   HH31   30  10.424  11.384  13.659 -2.9671 -0.9756  0.2802
    4NME   HH32   31  10.545  11.319  13.553  0.9711  2.8657  2.4060
    4NME   HH33   32  10.376  11.246  13.572 -1.0783  0.7347  1.5723
  20.99041  20.99041  20.99041
