Protein
   42
    1ACE   HH31    1   8.907   5.638   6.069 -0.7473 -1.9732  2.4002
    1ACE    CH3    2   8.945   5.724   6.124  0.0067 -0.6238 -0.0594
    1ACE   HH32    3   8.967   5.704   6.229  0.2669 -0.5481 -0.0950
    1ACE   HH33    4   8.871   5.804   6.126 -1.7621 -2.0639 -2.6224
    1ACE      C    5   9.077   5.762   6.056  1.3786  0.4744 -0.2374
    1ACE      O    6   9.071   5.795   5.938 -0.8927 -0.1728  0.1437
    2ALA      N    7   9.189   5.765   6.121  0.0185 -0.1125  0.7740
    2ALA      H    8   9.196   5.747   6.220  2.6436 -0.4162  0.6179
    2ALA     CA    9   9.318   5.795   6.063  0.2313 -0.1294  0.2326
    2ALA     HA   10   9.299   5.856   5.975  1.1734  1.1956  0.9053
    2ALA     CB   11   9.399   5.888   6.155 -0.4347  0.2582  0.2122
    2ALA    HB1   12   9.495   5.919   6.115 -0.9424  0.6020 -0.7797
    2ALA    HB2   13   9.346   5.984   6.155 -0.9422 -0.0101 -0.5353
    2ALA    HB3   14   9.406   5.853   6.258 -1.5348  0.0185  0.2215
    2ALA      C   15   9.393   5.672   6.015  0.2603  0.1099  0.8404
    2ALA      O   16   9.455   5.602   6.092 -0.6648 -0.2647 -0.4556
    3ALA      N   17   9.389   5.642   5.887  0.2328  0.2760  0.0087
    3ALA      H   18   9.451   5.564   5.870  0.5348  0.2447  1.1293
    3ALA     CA   19   9.329   5.709   5.778  0.8540  0.2909 -0.5821
    3ALA     HA   20   9.254   5.786   5.802  0.2513 -0.4193 -0.1261
    3ALA     CB   21   9.437   5.770   5.696  0.5634 -0.2654 -0.0094
    3ALA    HB1   22   9.514   5.696   5.677  0.7625 -0.4860  1.5455
    3ALA    HB2   23   9.389   5.803   5.604 -0.1120  0.1146  0.4527
    3ALA    HB3   24   9.482   5.851   5.752  0.3361 -0.4609  0.4646
    3ALA      C   25   9.254   5.600   5.697 -0.3202  0.1565 -0.0852
    3ALA      O   26   9.314   5.503   5.650 -0.3328  0.3469 -0.2829
    4ALA      N   27   9.122   5.617   5.691 -0.4478  0.0990 -0.4726
    4ALA      H   28   9.086   5.690   5.751  2.1715  0.1743  1.1218
    4ALA     CA   29   9.018   5.560   5.597 -0.0618  0.3837  0.0137
    4ALA     HA   30   8.973   5.644   5.545  1.2550  0.7706 -0.5653
    4ALA     CB   31   9.075   5.465   5.491 -0.1713 -0.3649  0.4137
    4ALA    HB1   32   9.152   5.526   5.444  0.2942  2.4291  4.3453
    4ALA    HB2   33   9.115   5.372   5.534  1.3859 -0.8657 -1.9003
    4ALA    HB3   34   8.988   5.450   5.428  0.4810  2.0870 -1.1821
    4ALA      C   35   8.915   5.482   5.684  0.3374 -0.2322  0.5481
    4ALA      O   36   8.818   5.539   5.733 -0.4482 -0.1583  0.3714
    5NME      N   37   8.947   5.359   5.719 -0.8040 -0.2988 -0.0681
    5NME      H   38   9.035   5.319   5.689 -0.0750  1.5214 -0.4990
    5NME    CH3   39   8.872   5.279   5.814  0.1581  0.1427 -0.2117
    5NME   HH31   40   8.822   5.195   5.767  1.3686 -0.3221 -0.6774
    5NME   HH32   41   8.932   5.243   5.898  1.5793  3.1997  0.2123
    5NME   HH33   42   8.791   5.341   5.853 -1.8717 -2.0988 -0.5959
  20.91516  20.91516  20.91516
