Protein
   42
    1ACE   HH31    1  15.681  11.257   6.598 -0.2610  0.3895 -0.2899
    1ACE    CH3    2  15.602  11.192   6.634 -0.1597  0.2643 -0.2953
    1ACE   HH32    3  15.505  11.228   6.601 -0.6992  0.6270  1.5254
    1ACE   HH33    4  15.602  11.191   6.743 -0.7303  3.0717 -0.2200
    1ACE      C    5  15.605  11.050   6.590  0.4935  0.1441  0.8437
    1ACE      O    6  15.501  10.990   6.559  0.0283  0.1118  0.0167
    2ALA      N    7  15.726  10.997   6.577  0.7738 -0.5649 -0.1889
    2ALA      H    8  15.792  11.069   6.601  0.1095  0.4945 -1.3914
    2ALA     CA    9  15.771  10.870   6.525 -0.3799 -0.8015 -0.4385
    2ALA     HA   10  15.695  10.822   6.463  1.0693 -2.4987 -0.9902
    2ALA     CB   11  15.882  10.896   6.423  0.0837 -0.2881 -0.3076
    2ALA    HB1   12  15.959  10.964   6.460 -0.4139  1.0072 -1.5346
    2ALA    HB2   13  15.925  10.803   6.387 -1.3295 -1.5346  1.0567
    2ALA    HB3   14  15.847  10.949   6.334  0.8017 -0.6416 -0.8033
    2ALA      C   15  15.819  10.776   6.637  0.1198  0.4315 -0.3717
    2ALA      O   16  15.929  10.718   6.633 -0.1057 -0.2553  0.3626
    3ALA      N   17  15.738  10.737   6.735 -0.5625  0.0979 -0.0322
    3ALA      H   18  15.784  10.666   6.791  0.3649  0.4411 -0.3496
    3ALA     CA   19  15.596  10.756   6.746  0.3733 -0.3063 -0.0757
    3ALA     HA   20  15.552  10.778   6.649  1.2721 -0.9838 -0.6590
    3ALA     CB   21  15.542  10.615   6.769  0.2442  0.4759 -0.1484
    3ALA    HB1   22  15.434  10.610   6.757  0.4472 -1.5669 -1.1994
    3ALA    HB2   23  15.573  10.551   6.688  1.0594 -1.6546  1.7489
    3ALA    HB3   24  15.582  10.574   6.862  1.9959 -0.2964 -1.2005
    3ALA      C   25  15.558  10.855   6.854  0.4207 -0.5948 -0.3568
    3ALA      O   26  15.637  10.889   6.934 -0.2492 -0.4913 -0.4933
    4ALA      N   27  15.434  10.906   6.838 -1.0913 -0.5513  0.2570
    4ALA      H   28  15.396  10.895   6.745  2.1976  0.4291 -1.3894
    4ALA     CA   29  15.347  10.971   6.930 -0.7079 -0.3478 -0.3061
    4ALA     HA   30  15.328  11.064   6.877 -1.4372  0.1290  0.7383
    4ALA     CB   31  15.218  10.891   6.939  0.5081  0.4111  0.0498
    4ALA    HB1   32  15.237  10.787   6.969 -0.4321  0.4251  0.7625
    4ALA    HB2   33  15.154  10.938   7.013 -2.8770 -1.2563 -1.6479
    4ALA    HB3   34  15.164  10.894   6.845 -1.8276  1.6816  1.3409
    4ALA      C   35  15.395  11.004   7.077  0.2059  0.3243  0.5870
    4ALA      O   36  15.369  11.114   7.126  0.3240  0.5067 -0.1262
    5NME      N   37  15.470  10.924   7.146  0.2019  0.7152  0.3808
    5NME      H   38  15.518  10.845   7.104 -3.0042 -1.3363  0.2909
    5NME    CH3   39  15.500  10.945   7.287 -0.2735  0.6289  0.7302
    5NME   HH31   40  15.609  10.943   7.287 -0.2297  0.2566 -1.8777
    5NME   HH32   41  15.450  11.035   7.324  0.6348  0.6588  1.9756
    5NME   HH33   42  15.464  10.862   7.348  0.1406  0.5799  0.9097
  20.91516  20.91516  20.91516
