Protein
   42
    1ACE   HH31    1  11.260  13.263   8.217 -1.2297  2.1282  2.1869
    1ACE    CH3    2  11.173  13.198   8.201  0.4408  0.2906 -0.2244
    1ACE   HH32    3  11.187  13.106   8.260  2.2188 -0.2720 -1.4173
    1ACE   HH33    4  11.163  13.169   8.097 -0.0085  1.1387 -0.4230
    1ACE      C    5  11.045  13.275   8.246 -0.2781  0.0432 -0.0727
    1ACE      O    6  11.059  13.389   8.289  0.4799  0.1463  0.0843
    2ALA      N    7  10.927  13.210   8.239  0.3151  0.4638 -0.4698
    2ALA      H    8  10.921  13.111   8.220  0.6679  0.4628 -0.5778
    2ALA     CA    9  10.796  13.270   8.283 -0.4852  0.0521 -0.0927
    2ALA     HA   10  10.819  13.369   8.323 -0.4223 -1.0866  2.9129
    2ALA     CB   11  10.710  13.275   8.152 -0.0704  0.2801 -0.0494
    2ALA    HB1   12  10.607  13.245   8.171 -0.2325 -0.6325 -2.1020
    2ALA    HB2   13  10.718  13.377   8.114  0.4615  0.2453 -0.0370
    2ALA    HB3   14  10.742  13.196   8.083 -0.2320  0.7151 -0.6275
    2ALA      C   15  10.727  13.189   8.391 -0.5105  0.1047 -0.4435
    2ALA      O   16  10.717  13.068   8.372  0.2476 -0.4508 -0.2135
    3ALA      N   17  10.671  13.242   8.500  0.2382  0.2741 -0.6083
    3ALA      H   18  10.621  13.176   8.557  1.4358  0.0710  0.2509
    3ALA     CA   19  10.676  13.383   8.540  0.9138  0.2890  0.2379
    3ALA     HA   20  10.778  13.419   8.534  0.9400  0.0926 -0.8401
    3ALA     CB   21  10.585  13.465   8.445  0.2740 -0.3801 -0.0919
    3ALA    HB1   22  10.633  13.472   8.347  0.2337 -1.1315 -0.1723
    3ALA    HB2   23  10.482  13.429   8.451 -0.4646  1.3894 -1.2404
    3ALA    HB3   24  10.578  13.571   8.468 -0.4636 -0.3492 -0.4503
    3ALA      C   25  10.639  13.405   8.690 -0.1826 -0.0463  1.1841
    3ALA      O   26  10.599  13.315   8.758 -0.0667 -0.2236  0.0272
    4ALA      N   27  10.641  13.528   8.734  0.1908 -0.0535  0.5772
    4ALA      H   28  10.662  13.603   8.670  2.8654 -0.3601  1.0122
    4ALA     CA   29  10.622  13.563   8.869  0.6196 -0.2611  0.2139
    4ALA     HA   30  10.693  13.512   8.934 -1.4932 -1.4785  1.6496
    4ALA     CB   31  10.661  13.715   8.870 -0.2465 -0.0109  0.3275
    4ALA    HB1   32  10.706  13.736   8.967  0.8539 -0.3514 -0.0902
    4ALA    HB2   33  10.723  13.747   8.786 -0.5193 -1.1644 -0.3257
    4ALA    HB3   34  10.564  13.765   8.865  0.0214  0.4020 -1.1960
    4ALA      C   35  10.491  13.525   8.941  0.4964 -0.2281  0.5448
    4ALA      O   36  10.485  13.521   9.058 -0.4664  0.0320 -0.4707
    5NME      N   37  10.380  13.497   8.865  0.6456 -0.0457 -0.5498
    5NME      H   38  10.394  13.495   8.765  1.1142  0.8459 -0.5140
    5NME    CH3   39  10.253  13.452   8.924  0.2509  0.0357 -0.2728
    5NME   HH31   40  10.257  13.489   9.027 -0.9420  1.1500 -0.6049
    5NME   HH32   41  10.174  13.505   8.871  0.6894  0.1719 -0.8070
    5NME   HH33   42  10.243  13.346   8.902 -1.3703  0.3682 -1.3273
  20.91516  20.91516  20.91516
