Protein
   42
    1ACE   HH31    1  15.185   1.960   8.976 -3.0404 -1.0601 -1.0935
    1ACE    CH3    2  15.127   2.008   9.055 -0.6864  0.1991  0.0035
    1ACE   HH32    3  15.184   2.090   9.097 -1.1977  0.3100  0.4996
    1ACE   HH33    4  15.107   1.939   9.137 -3.5354  1.6562  0.6650
    1ACE      C    5  14.990   2.056   9.006 -0.4329 -0.0210  0.2897
    1ACE      O    6  14.884   2.019   9.062  0.0794  0.4808  0.2311
    2ALA      N    7  14.987   2.149   8.907 -0.2237  0.4349 -0.0321
    2ALA      H    8  15.078   2.180   8.876  0.2690 -0.0062  0.9271
    2ALA     CA    9  14.864   2.195   8.847  0.2658  0.1124 -0.3729
    2ALA     HA   10  14.787   2.230   8.916 -0.4813  0.0598 -1.1509
    2ALA     CB   11  14.912   2.298   8.747  0.4796  0.2490  0.5658
    2ALA    HB1   12  14.995   2.250   8.695 -0.4116 -0.8564  0.1116
    2ALA    HB2   13  14.830   2.321   8.679  1.8155 -1.6561 -1.9317
    2ALA    HB3   14  14.944   2.390   8.796 -0.7242 -0.2460  2.3698
    2ALA      C   15  14.800   2.076   8.770  0.0844 -0.5068  0.0047
    2ALA      O   16  14.684   2.094   8.731 -0.2503  0.4362  0.8904
    3ALA      N   17  14.865   1.965   8.751 -0.2695 -0.2545  0.3238
    3ALA      H   18  14.950   1.949   8.803  0.9242  0.3351 -1.3689
    3ALA     CA   19  14.814   1.842   8.686 -0.8088 -0.0313 -0.5561
    3ALA     HA   20  14.738   1.793   8.747 -1.4247  1.9886  0.4225
    3ALA     CB   21  14.748   1.870   8.554 -0.5717  0.0441  1.2289
    3ALA    HB1   22  14.737   1.770   8.512 -1.5026  0.0124  1.5072
    3ALA    HB2   23  14.648   1.913   8.555  0.0463  1.7126 -1.5177
    3ALA    HB3   24  14.816   1.934   8.500 -1.0509 -0.6825 -0.2870
    3ALA      C   25  14.939   1.750   8.678 -0.7890 -0.4696 -0.3832
    3ALA      O   26  15.041   1.779   8.742  0.4025 -0.0654 -0.3837
    4ALA      N   27  14.939   1.645   8.596  0.1422 -0.0793 -0.1308
    4ALA      H   28  14.855   1.642   8.541  0.0392  1.3779 -0.0971
    4ALA     CA   29  15.060   1.566   8.570  0.4493  0.0163 -0.1946
    4ALA     HA   30  15.130   1.573   8.654  1.3226  2.1591 -1.0267
    4ALA     CB   31  15.019   1.426   8.540  0.0461 -0.4006  0.6412
    4ALA    HB1   32  15.107   1.364   8.521 -0.3947 -0.8998  0.1887
    4ALA    HB2   33  14.949   1.383   8.612 -1.5914  0.1371 -0.5710
    4ALA    HB3   34  14.970   1.409   8.445  2.4234 -0.7131 -0.6265
    4ALA      C   35  15.136   1.631   8.461 -0.2020  0.3523  0.0672
    4ALA      O   36  15.080   1.670   8.358 -0.5576  0.0326  0.4100
    5NME      N   37  15.269   1.631   8.466 -0.5815  0.4296 -0.2568
    5NME      H   38  15.311   1.592   8.549  2.0894 -0.2307 -1.7901
    5NME    CH3   39  15.365   1.672   8.361 -0.4792  0.0860  0.1010
    5NME   HH31   40  15.350   1.614   8.269 -2.5749 -1.4315  1.3234
    5NME   HH32   41  15.355   1.774   8.325 -0.9988 -0.3516 -1.0576
    5NME   HH33   42  15.468   1.653   8.394  0.5817 -1.9869 -3.7033
  20.91516  20.91516  20.91516
