Protein
   42
    1ACE   HH31    1   1.974  12.137  17.061  1.9627  1.7177  1.5718
    1ACE    CH3    2   1.882  12.193  17.080  0.3969  0.0443 -0.6053
    1ACE   HH32    3   1.824  12.128  17.146  1.7061 -0.6278 -0.0653
    1ACE   HH33    4   1.830  12.221  16.989 -0.0124 -0.4301 -0.5181
    1ACE      C    5   1.928  12.314  17.159  0.0959 -0.3766  0.6444
    1ACE      O    6   1.939  12.420  17.100  0.6204  0.1638  0.4416
    2ALA      N    7   1.961  12.291  17.276 -0.2058  0.0133 -0.2095
    2ALA      H    8   1.955  12.199  17.317  0.3277  0.5242  1.0642
    2ALA     CA    9   2.014  12.382  17.379 -1.1718 -0.1330 -0.1548
    2ALA     HA   10   1.930  12.444  17.409 -0.6697  1.3579 -1.7078
    2ALA     CB   11   2.053  12.295  17.503  0.3606 -0.2790  0.4317
    2ALA    HB1   12   1.970  12.250  17.557 -0.1654  0.9113  0.6458
    2ALA    HB2   13   2.125  12.223  17.463  1.0920 -0.0559  1.3087
    2ALA    HB3   14   2.103  12.366  17.569 -1.0137  1.3679 -0.2392
    2ALA      C   15   2.126  12.475  17.335 -0.3425 -0.6604  0.3151
    2ALA      O   16   2.232  12.429  17.288 -0.4664  0.5996  0.1992
    3ALA      N   17   2.100  12.607  17.338 -0.3888  0.0755 -0.0835
    3ALA      H   18   2.006  12.635  17.360 -0.4068 -0.1752  0.1614
    3ALA     CA   19   2.200  12.715  17.311  0.3221  0.2792 -0.1671
    3ALA     HA   20   2.138  12.803  17.329 -0.2344 -0.0704 -0.3453
    3ALA     CB   21   2.324  12.704  17.404  0.2652  0.6398 -0.2528
    3ALA    HB1   22   2.282  12.668  17.498  1.3917 -2.9346 -0.9765
    3ALA    HB2   23   2.387  12.628  17.357  0.7706  0.1983  1.0749
    3ALA    HB3   24   2.367  12.804  17.413 -1.1221  1.2699 -0.3553
    3ALA      C   25   2.246  12.729  17.158  0.2744  0.1512 -0.5637
    3ALA      O   26   2.284  12.835  17.115 -0.1123  0.5783 -0.5800
    4ALA      N   27   2.241  12.624  17.078 -0.4451  0.1769  1.1719
    4ALA      H   28   2.214  12.533  17.112  0.7233 -1.1349 -1.1859
    4ALA     CA   29   2.283  12.636  16.935 -0.3206 -0.4598  0.0563
    4ALA     HA   30   2.273  12.739  16.898  3.1119 -0.6176 -1.7050
    4ALA     CB   31   2.436  12.619  16.911 -0.3801 -0.0460 -0.3645
    4ALA    HB1   32   2.467  12.648  16.810  1.1997 -3.0844 -0.8712
    4ALA    HB2   33   2.484  12.675  16.992 -1.1306 -0.4704  0.3846
    4ALA    HB3   34   2.466  12.515  16.922 -0.2988  0.0507  0.4086
    4ALA      C   35   2.216  12.533  16.847  0.0750  0.5212  0.5626
    4ALA      O   36   2.204  12.554  16.726 -0.0613 -0.3214  0.0111
    5NME      N   37   2.169  12.420  16.901 -0.1375 -0.1817  0.0062
    5NME      H   38   2.218  12.412  16.989 -0.3286 -0.4462  0.0869
    5NME    CH3   39   2.101  12.309  16.830  0.7984 -0.3389 -0.7165
    5NME   HH31   40   1.998  12.302  16.866  1.4447 -1.7158  1.0044
    5NME   HH32   41   2.105  12.340  16.726 -2.0992  1.7225 -0.3249
    5NME   HH33   42   2.159  12.220  16.855 -1.0217 -0.9001  1.8664
  20.91516  20.91516  20.91516
