Protein
   42
    1ACE   HH31    1   8.977  11.603   8.764 -0.8654  0.4745 -0.1799
    1ACE    CH3    2   9.042  11.688   8.742  0.4972 -0.6929 -0.7810
    1ACE   HH32    3   9.051  11.730   8.842  0.1598 -1.6056 -0.3577
    1ACE   HH33    4   8.994  11.752   8.668 -0.8127 -1.5483 -0.6965
    1ACE      C    5   9.177  11.654   8.699 -0.2337 -0.2557 -0.3308
    1ACE      O    6   9.191  11.569   8.617  0.3033 -0.6736 -0.3624
    2ALA      N    7   9.268  11.731   8.749 -0.2469 -0.6355  0.2044
    2ALA      H    8   9.242  11.803   8.815  2.2707 -0.8334  1.5435
    2ALA     CA    9   9.406  11.739   8.712  0.2452  0.2361 -0.3765
    2ALA     HA   10   9.445  11.637   8.712 -0.2742  0.0305  0.2287
    2ALA     CB   11   9.417  11.794   8.576 -0.3252  0.3263  0.6600
    2ALA    HB1   12   9.355  11.740   8.504  0.9257  0.9336 -0.8863
    2ALA    HB2   13   9.378  11.895   8.571 -1.7196 -0.2422 -1.0058
    2ALA    HB3   14   9.522  11.807   8.550 -0.1555  1.6105  1.8609
    2ALA      C   15   9.476  11.823   8.823  0.0533 -0.0320  0.2239
    2ALA      O   16   9.410  11.907   8.890 -0.1147 -0.4043 -0.5197
    3ALA      N   17   9.602  11.794   8.845 -0.0350  0.0526  0.5361
    3ALA      H   18   9.637  11.723   8.782 -1.7429  0.4443 -0.9224
    3ALA     CA   19   9.696  11.862   8.930  0.4140 -0.2240 -0.3808
    3ALA     HA   20   9.795  11.828   8.902  0.0709 -2.1692  0.6772
    3ALA     CB   21   9.709  12.014   8.890  0.3577 -0.4850 -0.1994
    3ALA    HB1   22   9.614  12.066   8.901 -1.0942 -2.8556 -0.9500
    3ALA    HB2   23   9.785  12.059   8.955 -1.8343  1.8220  0.9439
    3ALA    HB3   24   9.742  12.028   8.787 -0.3810  2.1140 -0.1422
    3ALA      C   25   9.676  11.836   9.079  0.0775 -0.0075 -0.0338
    3ALA      O   26   9.772  11.836   9.153 -0.2006  0.2204  0.4363
    4ALA      N   27   9.552  11.821   9.129 -0.4215  0.4235  0.1854
    4ALA      H   28   9.475  11.843   9.067 -0.1088  0.7467 -0.1004
    4ALA     CA   29   9.510  11.761   9.253 -0.1361 -0.1731  0.0558
    4ALA     HA   30   9.539  11.836   9.327  1.5155 -0.5123 -0.2028
    4ALA     CB   31   9.360  11.727   9.241 -0.4938 -0.3190  0.6274
    4ALA    HB1   32   9.336  11.656   9.162 -1.0822  1.3421 -0.7499
    4ALA    HB2   33   9.334  11.682   9.337  2.4647 -0.0536  1.6716
    4ALA    HB3   34   9.300  11.816   9.224  0.4782  0.0190 -1.2927
    4ALA      C   35   9.601  11.647   9.284  0.5082 -0.5292  0.3395
    4ALA      O   36   9.571  11.528   9.255  0.5624 -0.3219  0.2375
    5NME      N   37   9.711  11.675   9.355 -0.3109 -0.1059 -0.3524
    5NME      H   38   9.751  11.765   9.331  0.3476 -0.7024 -1.5985
    5NME    CH3   39   9.786  11.587   9.444  0.7817  0.2604  0.2125
    5NME   HH31   40   9.848  11.519   9.386 -2.3953 -2.4974 -0.2954
    5NME   HH32   41   9.845  11.640   9.519  1.5287  1.0565 -0.9018
    5NME   HH33   42   9.711  11.523   9.491 -1.1593 -0.9242 -3.9910
  20.91516  20.91516  20.91516
