Protein
   42
    1ACE   HH31    1  10.634  10.910   3.954  0.2919 -0.3154  0.2790
    1ACE    CH3    2  10.596  10.995   3.897  0.8062 -0.2889 -0.0266
    1ACE   HH32    3  10.537  10.958   3.814  0.9337  0.3816 -0.4271
    1ACE   HH33    4  10.690  11.043   3.869  1.3898 -2.1500 -1.4944
    1ACE      C    5  10.514  11.072   3.993 -0.1195 -0.2124  0.3264
    1ACE      O    6  10.392  11.065   3.984 -1.1872 -0.2448 -0.1853
    2ALA      N    7  10.576  11.150   4.080 -0.4638  0.2191  0.0002
    2ALA      H    8  10.675  11.137   4.090 -0.0131  2.5723 -0.7689
    2ALA     CA    9  10.513  11.232   4.183  0.2331  0.1565 -0.1036
    2ALA     HA   10  10.407  11.227   4.161  0.0167 -0.2104  0.9668
    2ALA     CB   11  10.530  11.170   4.327  0.3291 -0.4221 -0.2370
    2ALA    HB1   12  10.636  11.170   4.352  0.0833  0.6463  0.8653
    2ALA    HB2   13  10.481  11.229   4.403 -1.0916 -2.6388  0.6801
    2ALA    HB3   14  10.486  11.070   4.328 -0.2997 -0.1995  2.6243
    2ALA      C   15  10.544  11.386   4.182  0.4832 -0.0390  0.0794
    2ALA      O   16  10.608  11.434   4.276  0.0417  0.1900 -0.3848
    3ALA      N   17  10.521  11.464   4.079  0.0476 -0.0424 -0.0275
    3ALA      H   18  10.553  11.558   4.099  0.5906 -0.5376  1.5468
    3ALA     CA   19  10.474  11.442   3.940  0.2909 -0.1480 -0.0391
    3ALA     HA   20  10.398  11.363   3.947  0.1517  0.0067  0.2049
    3ALA     CB   21  10.401  11.575   3.896 -0.1983  0.4463  0.8646
    3ALA    HB1   22  10.322  11.603   3.966 -1.2337 -0.9186  0.3088
    3ALA    HB2   23  10.472  11.657   3.895  0.0648  0.2194  0.1343
    3ALA    HB3   24  10.365  11.567   3.793 -2.3251 -2.8389  1.7136
    3ALA      C   25  10.572  11.393   3.836 -0.4650  0.3170  0.0979
    3ALA      O   26  10.541  11.384   3.722  1.2881  0.2064 -0.1881
    4ALA      N   27  10.696  11.377   3.876 -0.0960  0.7310  0.3165
    4ALA      H   28  10.729  11.412   3.965  1.8091  0.0749 -0.0596
    4ALA     CA   29  10.809  11.351   3.791 -0.4121  0.1784  0.2067
    4ALA     HA   30  10.769  11.326   3.693  2.0255 -3.7471  0.0040
    4ALA     CB   31  10.890  11.475   3.769 -0.1253 -0.9408 -0.5377
    4ALA    HB1   32  10.932  11.511   3.863 -1.1997  1.2022 -0.8069
    4ALA    HB2   33  10.972  11.461   3.699  2.5126  1.2574  1.8759
    4ALA    HB3   34  10.825  11.550   3.725  0.5861  0.0043  0.0008
    4ALA      C   35  10.890  11.230   3.839  0.7877  0.3298 -0.5700
    4ALA      O   36  10.894  11.213   3.964  0.7923  0.0696  0.4064
    5NME      N   37  10.942  11.149   3.749  0.0236  0.0892 -0.5793
    5NME      H   38  10.959  11.176   3.653  1.2528 -0.3967 -0.5236
    5NME    CH3   39  11.021  11.029   3.790 -0.4340 -0.2071 -0.2140
    5NME   HH31   40  11.050  10.955   3.716 -0.0352  0.2731 -0.5510
    5NME   HH32   41  11.114  11.067   3.833  1.0633 -0.0610 -3.2635
    5NME   HH33   42  10.959  10.963   3.850 -0.9314 -1.1977 -1.7596
  20.91516  20.91516  20.91516
