Protein
   42
    1ACE   HH31    1   1.431   9.737   3.097 -0.6063  1.0716 -0.2493
    1ACE    CH3    2   1.467   9.755   3.198  0.1886  0.0572 -0.3360
    1ACE   HH32    3   1.493   9.861   3.206 -1.2966  0.4850 -0.9206
    1ACE   HH33    4   1.554   9.689   3.211 -0.2749 -0.4362  0.3371
    1ACE      C    5   1.353   9.741   3.295 -0.4497  0.1878  0.1993
    1ACE      O    6   1.335   9.637   3.360 -0.5425 -0.1314  0.5721
    2ALA      N    7   1.266   9.844   3.306 -0.0100  0.6319 -0.4059
    2ALA      H    8   1.296   9.937   3.279 -0.8000  0.3178 -2.5454
    2ALA     CA    9   1.124   9.830   3.310 -0.0191 -0.0488 -0.2982
    2ALA     HA   10   1.085   9.919   3.261  1.9000  0.2903 -1.3187
    2ALA     CB   11   1.061   9.720   3.217  0.7096  0.7163 -0.2089
    2ALA    HB1   12   1.085   9.732   3.112  3.2024  1.4896  0.3603
    2ALA    HB2   13   1.089   9.618   3.245 -1.6528 -0.5941 -2.2271
    2ALA    HB3   14   0.952   9.728   3.210  0.7391  0.8644 -0.5659
    2ALA      C   15   1.069   9.836   3.455  0.4380 -0.2506  0.2962
    2ALA      O   16   0.986   9.910   3.494  0.6165 -0.3113 -0.5326
    3ALA      N   17   1.127   9.742   3.525  0.9770  0.5498  0.2800
    3ALA      H   18   1.194   9.681   3.480  2.1163  1.1511  1.1320
    3ALA     CA   19   1.115   9.713   3.672 -0.2993 -0.1370 -0.0361
    3ALA     HA   20   1.077   9.799   3.726  0.0324 -0.1897  0.2921
    3ALA     CB   21   1.013   9.598   3.692 -0.4585  0.3676  0.0996
    3ALA    HB1   22   1.002   9.591   3.800  1.1431 -0.0072  0.2653
    3ALA    HB2   23   0.926   9.620   3.631 -0.1028  0.4807 -0.3806
    3ALA    HB3   24   1.053   9.505   3.652  0.7423  0.4607  1.0259
    3ALA      C   25   1.246   9.673   3.750 -0.1773 -0.3979 -0.0692
    3ALA      O   26   1.248   9.682   3.871 -0.8779  0.0908 -0.0421
    4ALA      N   27   1.351   9.656   3.669 -0.7875  0.4297 -0.8007
    4ALA      H   28   1.343   9.667   3.569  0.7701  1.8815 -0.8214
    4ALA     CA   29   1.483   9.640   3.712 -0.5199 -0.0691 -0.4656
    4ALA     HA   30   1.486   9.627   3.820  0.8354  0.3368 -0.4306
    4ALA     CB   31   1.547   9.515   3.646  0.1826 -0.0660 -0.1422
    4ALA    HB1   32   1.649   9.499   3.680  0.4620  1.1974 -0.3263
    4ALA    HB2   33   1.487   9.426   3.664 -0.9009  0.1638 -2.2953
    4ALA    HB3   34   1.548   9.520   3.537 -0.2483  0.7731 -0.1148
    4ALA      C   35   1.564   9.771   3.683  0.1563  0.0131  0.6014
    4ALA      O   36   1.588   9.813   3.564 -0.1687  0.4606  0.1510
    5NME      N   37   1.609   9.843   3.790 -0.6467  0.0386  0.2178
    5NME      H   38   1.573   9.819   3.882 -1.0545  1.2803  0.4069
    5NME    CH3   39   1.720   9.935   3.782 -0.2603  1.0839  0.5519
    5NME   HH31   40   1.688  10.038   3.771 -1.5385  0.6617  0.0863
    5NME   HH32   41   1.780   9.927   3.873 -0.2111 -0.4702  0.4148
    5NME   HH33   42   1.790   9.910   3.702  0.8429  1.3839  1.3987
  20.91516  20.91516  20.91516
