Protein
   22
    1ACE   HH31    1   6.208   6.451   9.428  0.0634  2.8909 -0.3858
    1ACE    CH3    2   6.312   6.421   9.424 -0.4623  0.8692 -0.4712
    1ACE   HH32    3   6.353   6.456   9.329 -3.2128  1.6832 -1.4379
    1ACE   HH33    4   6.335   6.315   9.430 -0.0557  0.9784  0.0216
    1ACE      C    5   6.383   6.492   9.533  0.9330  0.1704 -0.3953
    1ACE      O    6   6.313   6.551   9.617  0.2547 -0.6961  0.6226
    2ALA      N    7   6.514   6.486   9.534 -0.0720  0.3109 -0.2829
    2ALA      H    8   6.556   6.426   9.464 -0.2522 -0.5401  0.3193
    2ALA     CA    9   6.599   6.566   9.636  0.2363  0.3658  0.0584
    2ALA     HA   10   6.568   6.671   9.641  1.8724  0.8465  1.2719
    2ALA     CB   11   6.577   6.503   9.772  0.3124 -0.0047 -0.0942
    2ALA    HB1   12   6.624   6.561   9.852  2.2478 -2.5458  0.7358
    2ALA    HB2   13   6.472   6.521   9.794  0.7311  2.2237  0.2914
    2ALA    HB3   14   6.595   6.397   9.757  1.0671  0.3984 -2.5132
    2ALA      C   15   6.747   6.567   9.592  0.2285 -0.0902 -0.4840
    2ALA      O   16   6.771   6.534   9.472 -0.1550  0.2810 -0.3636
    3NME      N   17   6.842   6.610   9.677  0.7408  0.1202  0.2901
    3NME      H   18   6.815   6.640   9.770  0.5710  1.3258 -0.1305
    3NME    CH3   19   6.981   6.622   9.644  0.0738  0.1821 -0.3370
    3NME   HH31   20   7.020   6.540   9.584 -1.0842 -2.2865  2.0718
    3NME   HH32   21   7.003   6.719   9.600  1.3908  2.5403  4.6959
    3NME   HH33   22   7.032   6.619   9.741  1.3134 -0.5919 -0.9757
  10.72160  10.72160  10.72160
