Protein
   42
    1ACE   HH31    1   9.134  10.895   9.755 -3.2748 -0.9596  1.1728
    1ACE    CH3    2   9.174  10.803   9.797  0.3111  0.1896  0.6157
    1ACE   HH32    3   9.212  10.829   9.896  1.2609 -0.9806  0.5748
    1ACE   HH33    4   9.250  10.754   9.736 -0.7109 -2.0066  1.0271
    1ACE      C    5   9.051  10.714   9.805  0.4262 -0.4228  0.6119
    1ACE      O    6   8.936  10.761   9.818 -0.1753 -0.1504  0.1690
    2ALA      N    7   9.072  10.587   9.768 -0.2611 -0.1745  0.7698
    2ALA      H    8   9.169  10.559   9.772 -0.2513 -0.2564  0.1856
    2ALA     CA    9   8.967  10.491   9.731 -0.4390  0.5357  0.3340
    2ALA     HA   10   8.877  10.524   9.782 -1.1934  1.4604 -1.4604
    2ALA     CB   11   8.942  10.486   9.578 -0.4298  0.5471  0.2645
    2ALA    HB1   12   8.891  10.575   9.541  0.9542  0.7394 -1.3058
    2ALA    HB2   13   9.040  10.482   9.530 -0.2849  1.0292  0.4877
    2ALA    HB3   14   8.872  10.405   9.557 -0.2274  0.7976 -1.5218
    2ALA      C   15   9.008  10.351   9.779 -0.2467  0.4994 -0.3477
    2ALA      O   16   9.108  10.304   9.726  0.4101 -0.2648 -0.3213
    3ALA      N   17   8.932  10.279   9.854  0.3031  0.2431 -0.7086
    3ALA      H   18   8.962  10.184   9.867  0.1812  0.2861 -0.0654
    3ALA     CA   19   8.822  10.332   9.938  0.4480  0.3460  0.1496
    3ALA     HA   20   8.756  10.400   9.883  0.1909  1.5641  1.8782
    3ALA     CB   21   8.732  10.218   9.973  0.5130 -0.4375 -0.2875
    3ALA    HB1   22   8.784  10.154  10.044 -1.4785 -1.3963  0.3737
    3ALA    HB2   23   8.654  10.256  10.039  0.7214 -1.7445  0.7478
    3ALA    HB3   24   8.697  10.166   9.883 -2.5514  1.9291 -0.6049
    3ALA      C   25   8.885  10.412  10.057  0.2080 -0.0457 -0.1530
    3ALA      O   26   8.918  10.352  10.160 -0.1844 -0.2089 -0.2771
    4ALA      N   27   8.880  10.546  10.042  0.5408 -0.2729 -0.0426
    4ALA      H   28   8.840  10.589   9.960  0.8006  0.2961  0.1271
    4ALA     CA   29   8.948  10.644  10.128 -0.8673 -0.1245  0.0831
    4ALA     HA   30   8.938  10.735  10.069 -0.5282 -0.3307 -0.2969
    4ALA     CB   31   8.876  10.676  10.263 -0.2391 -0.2560  0.8269
    4ALA    HB1   32   8.920  10.625  10.348 -0.0888 -0.8287  0.4146
    4ALA    HB2   33   8.892  10.782  10.287 -1.5364  0.1967 -0.1393
    4ALA    HB3   34   8.768  10.661  10.258 -0.1711 -0.6604  0.3226
    4ALA      C   35   9.101  10.612  10.152 -0.4450  0.1176  0.7694
    4ALA      O   36   9.186  10.662  10.078 -0.1053 -0.2070 -0.8043
    5NME      N   37   9.128  10.510  10.240 -0.3856 -0.9932  0.0216
    5NME      H   38   9.045  10.457  10.258  0.0604 -1.5906  0.3970
    5NME    CH3   39   9.257  10.434  10.237  0.0201  0.8429 -0.0947
    5NME   HH31   40   9.288  10.435  10.132 -0.6025  1.5152 -0.2858
    5NME   HH32   41   9.330  10.492  10.293 -2.6905  3.2696  1.1707
    5NME   HH33   42   9.248  10.335  10.282 -1.2294  0.3571 -1.3045
  20.91516  20.91516  20.91516
