Protein
   42
    1ACE   HH31    1  11.283   8.316  15.809 -1.0444  1.4100 -0.0244
    1ACE    CH3    2  11.356   8.366  15.746  0.3573 -0.0745  0.3301
    1ACE   HH32    3  11.402   8.307  15.667 -0.7441 -1.8137  0.9389
    1ACE   HH33    4  11.436   8.405  15.809  0.7289 -1.5000  0.7515
    1ACE      C    5  11.289   8.489  15.675 -0.3834  0.2843  0.3653
    1ACE      O    6  11.315   8.604  15.713  0.2452  0.3191 -0.0056
    2ALA      N    7  11.213   8.461  15.571  0.6038 -0.1333 -0.3504
    2ALA      H    8  11.192   8.364  15.550  3.0299 -0.8444  0.1201
    2ALA     CA    9  11.151   8.565  15.475  0.3222 -0.0538  0.2663
    2ALA     HA   10  11.229   8.634  15.446 -1.1439  0.7574 -2.0340
    2ALA     CB   11  11.095   8.495  15.350  1.0285  1.3693  0.1291
    2ALA    HB1   12  11.082   8.569  15.271  2.5372  0.7131 -0.7692
    2ALA    HB2   13  11.169   8.425  15.312 -0.9990 -0.7895 -0.0563
    2ALA    HB3   14  10.997   8.449  15.363  0.4244  2.1163 -1.4049
    2ALA      C   15  11.037   8.651  15.542 -0.4123  0.2359  0.7717
    2ALA      O   16  10.948   8.690  15.473  0.5705 -0.4996 -0.2894
    3ALA      N   17  11.040   8.678  15.672 -0.1649 -0.4276  0.1970
    3ALA      H   18  11.121   8.649  15.726 -1.2738 -1.4047  1.4073
    3ALA     CA   19  10.942   8.745  15.757 -0.1312  0.1573 -0.2807
    3ALA     HA   20  10.935   8.681  15.845 -2.0087  1.3891  0.5327
    3ALA     CB   21  11.008   8.875  15.810 -0.2626  0.3010 -0.3780
    3ALA    HB1   22  10.948   8.905  15.896 -2.0906 -2.2951 -0.6171
    3ALA    HB2   23  11.111   8.851  15.838 -0.0060  2.1910  0.3970
    3ALA    HB3   24  11.003   8.950  15.731  0.9917 -0.2594 -1.0368
    3ALA      C   25  10.803   8.770  15.704 -0.5423 -0.0085  0.2178
    3ALA      O   26  10.759   8.883  15.685 -0.3540  0.3469 -0.2840
    4ALA      N   27  10.735   8.659  15.677 -0.4057 -0.3911  0.4496
    4ALA      H   28  10.772   8.572  15.714  0.3757  0.3177  1.3883
    4ALA     CA   29  10.592   8.654  15.633 -0.1854  0.0289 -0.4139
    4ALA     HA   30  10.527   8.736  15.662 -0.2240 -0.3868  0.7515
    4ALA     CB   31  10.605   8.637  15.482  0.1367  0.0089 -0.5042
    4ALA    HB1   32  10.675   8.559  15.453 -0.7378  0.5347 -4.7526
    4ALA    HB2   33  10.508   8.618  15.436 -0.9541  2.6238  0.4892
    4ALA    HB3   34  10.635   8.732  15.438  1.0476  1.2767  2.5401
    4ALA      C   35  10.532   8.525  15.699  0.1015 -0.5577 -0.4378
    4ALA      O   36  10.603   8.457  15.771 -0.1033  0.0730  0.0923
    5NME      N   37  10.409   8.492  15.669  0.1146  0.5002 -0.1535
    5NME      H   38  10.357   8.546  15.602  0.4627 -0.1959 -0.9942
    5NME    CH3   39  10.346   8.385  15.742  0.4939  0.0736  0.2359
    5NME   HH31   40  10.409   8.320  15.802 -0.5511 -0.8651  0.3532
    5NME   HH32   41  10.266   8.417  15.808  0.4115 -1.0907  0.7220
    5NME   HH33   42  10.308   8.314  15.668  0.5874  1.3491 -1.0765
  20.91516  20.91516  20.91516
