Protein
   32
    1ACE   HH31    1   9.765   7.656  12.966  1.3401  0.5129  0.9945
    1ACE    CH3    2   9.813   7.558  12.961 -0.3368 -0.2977  0.2981
    1ACE   HH32    3   9.907   7.551  13.015 -0.4139  0.3668  0.5321
    1ACE   HH33    4   9.831   7.529  12.857 -2.1099  0.0900 -0.1528
    1ACE      C    5   9.724   7.466  13.035  0.4924 -0.5671  0.5251
    1ACE      O    6   9.679   7.372  12.969  0.1577  0.0921 -0.1113
    2ALA      N    7   9.691   7.491  13.167 -0.0958 -0.4775  0.5356
    2ALA      H    8   9.723   7.574  13.214  0.3408  0.4230 -1.2661
    2ALA     CA    9   9.598   7.406  13.240  0.0708 -0.0714  0.3780
    2ALA     HA   10   9.515   7.370  13.179 -1.7688  0.8282  2.2324
    2ALA     CB   11   9.666   7.276  13.286  0.0080  0.5275 -0.4167
    2ALA    HB1   12   9.761   7.296  13.336  0.7759 -0.0801 -1.5818
    2ALA    HB2   13   9.608   7.226  13.364  0.0682 -0.5554 -1.0498
    2ALA    HB3   14   9.697   7.217  13.200  0.8648  3.8757 -2.6049
    2ALA      C   15   9.526   7.479  13.356  0.0830 -0.4468  0.0529
    2ALA      O   16   9.589   7.539  13.442  0.4751 -0.1849 -0.0414
    3ALA      N   17   9.397   7.489  13.350  0.1341 -0.2346 -0.2200
    3ALA      H   18   9.350   7.439  13.277 -1.3285  0.4671  0.1979
    3ALA     CA   19   9.306   7.531  13.452 -0.0719  0.4969 -0.2285
    3ALA     HA   20   9.334   7.489  13.549  2.2081 -0.0072 -1.0386
    3ALA     CB   21   9.311   7.681  13.460  0.5101  0.1052 -0.8328
    3ALA    HB1   22   9.394   7.710  13.525 -1.3576  0.2662  1.6106
    3ALA    HB2   23   9.331   7.728  13.364  0.9826  2.2803  0.2745
    3ALA    HB3   24   9.224   7.725  13.509 -0.6822 -1.3322 -1.5811
    3ALA      C   25   9.162   7.479  13.429  0.2332  1.0153  0.6063
    3ALA      O   26   9.119   7.378  13.484  0.0166 -0.2011  0.1849
    4NME      N   27   9.086   7.550  13.341 -0.0419  0.2849 -0.3598
    4NME      H   28   9.133   7.629  13.299  1.1623  2.0057  3.6042
    4NME    CH3   29   8.939   7.531  13.322 -0.1538 -0.4391 -0.3504
    4NME   HH31   30   8.907   7.603  13.247 -0.1741 -0.4760 -0.3775
    4NME   HH32   31   8.915   7.429  13.292 -2.0111  0.3630 -1.7802
    4NME   HH33   32   8.886   7.541  13.417 -0.1802 -2.1593 -0.1597
  20.99041  20.99041  20.99041
