Title
  129
    1AIB    CAY    1  20.035  20.731  21.342 -0.1473 -0.3217 -0.7090
    1AIB    HY1    2  20.072  20.628  21.327  0.9524  0.3795 -3.6533
    1AIB    HY2    3  19.928  20.731  21.311 -0.1124 -1.5992 -0.8539
    1AIB    HY3    4  20.046  20.763  21.448 -2.7794 -0.8479 -0.1931
    1AIB     CY    5  20.123  20.803  21.253 -0.4937  0.7044  0.4697
    1AIB     OY    6  20.105  20.798  21.136  0.0060  0.4685  0.7201
    1AIB      N    7  20.210  20.888  21.313  0.0580 -0.2423  0.3415
    1AIB     HN    8  20.213  20.889  21.413  1.9878  0.6616  0.3389
    1AIB     CA    9  20.296  20.989  21.249 -0.4523  0.0924 -0.1649
    1AIB    CB1   10  20.415  21.021  21.341 -0.3716  0.0244 -0.0032
    1AIB   HB11   11  20.466  21.109  21.295 -0.7463  0.1802 -0.1332
    1AIB   HB12   12  20.478  20.931  21.356  0.6888  0.7661  0.0656
    1AIB   HB13   13  20.382  21.062  21.439 -1.7238  0.7476 -0.7411
    1AIB    CB2   14  20.211  21.124  21.230 -0.5323  0.4389 -0.4220
    1AIB   HB21   15  20.117  21.107  21.173  0.4812 -2.4180 -1.4652
    1AIB   HB22   16  20.273  21.196  21.173  0.2694  0.0202 -0.1109
    1AIB   HB23   17  20.182  21.168  21.328  1.1197 -2.6114  1.6075
    1AIB      C   18  20.366  20.935  21.117 -0.3373  0.0180 -0.3425
    1AIB      O   19  20.357  20.992  21.007 -0.4318  0.5474 -0.2800
    2AIB      N   20  20.444  20.824  21.122 -0.3667 -0.4075  0.2859
    2AIB     HN   21  20.467  20.777  21.207 -2.3255  1.3451  1.8629
    2AIB     CA   22  20.511  20.757  21.005  0.0213  0.5746 -0.3391
    2AIB    CB1   23  20.549  20.621  21.067 -0.5953 -0.5811 -0.1682
    2AIB   HB11   24  20.597  20.562  20.985  0.5602  0.8629 -0.5563
    2AIB   HB12   25  20.459  20.570  21.109 -1.7211 -1.0621 -2.9151
    2AIB   HB13   26  20.624  20.641  21.146 -1.2647 -0.5332  0.4568
    2AIB    CB2   27  20.638  20.836  20.967 -0.1032  0.2836  0.1010
    2AIB   HB21   28  20.695  20.778  20.891  0.4951 -0.7232  1.2854
    2AIB   HB22   29  20.704  20.846  21.056  2.2265 -0.9031 -1.3420
    2AIB   HB23   30  20.608  20.931  20.918 -0.4598 -1.1582 -2.6686
    2AIB      C   31  20.419  20.734  20.883  0.1658 -0.7145 -0.7173
    2AIB      O   32  20.441  20.774  20.770 -0.2808 -0.0461 -0.3109
    3AIB      N   33  20.298  20.674  20.906 -0.3503  0.3561  0.2617
    3AIB     HN   34  20.260  20.665  20.998  1.9057  0.7531  1.3024
    3AIB     CA   35  20.206  20.636  20.802 -0.1187  0.7683 -0.0132
    3AIB    CB1   36  20.092  20.551  20.873  0.2120 -0.7000  0.1746
    3AIB   HB11   37  20.038  20.501  20.791 -3.0763  4.1635 -1.0339
    3AIB   HB12   38  20.015  20.606  20.931 -0.7983 -1.8044 -0.0853
    3AIB   HB13   39  20.137  20.476  20.941 -0.1215 -1.8631 -0.8727
    3AIB    CB2   40  20.270  20.548  20.695 -0.0205 -0.1693  0.2711
    3AIB   HB21   41  20.301  20.458  20.753 -0.4991 -0.5794 -0.0836
    3AIB   HB22   42  20.368  20.583  20.658 -1.1088  1.0567 -1.5963
    3AIB   HB23   43  20.212  20.524  20.603  2.1750  0.8055 -1.4753
    3AIB      C   44  20.141  20.753  20.733 -0.6526  0.0269 -0.1905
    3AIB      O   45  20.129  20.771  20.611 -0.0197  0.3403 -0.0267
    4AIB      N   46  20.093  20.848  20.819  0.2305  0.1237 -0.2196
    4AIB     HN   47  20.109  20.836  20.917  0.8920  1.2417 -0.1672
    4AIB     CA   48  20.031  20.977  20.785 -0.0982  0.4326  0.3229
    4AIB    CB1   49  20.021  21.064  20.914  0.9855  0.2195 -0.4842
    4AIB   HB11   50  19.961  21.156  20.897  0.0817 -0.4227 -0.8399
    4AIB   HB12   51  20.121  21.100  20.946  1.9791 -2.1203 -0.7931
    4AIB   HB13   52  19.976  20.998  20.991 -2.2835 -2.4127 -4.2467
    4AIB    CB2   53  19.895  20.952  20.715  0.0146  0.6028 -0.2128
    4AIB   HB21   54  19.912  20.873  20.639 -2.2652 -2.7902  2.4261
    4AIB   HB22   55  19.854  21.045  20.672  3.6105  2.3896 -0.1228
    4AIB   HB23   56  19.814  20.915  20.782 -0.9330  0.6477 -1.2829
    4AIB      C   57  20.118  21.056  20.690 -0.1546  0.3997  0.3468
    4AIB      O   58  20.068  21.102  20.589  0.0734  0.0987  0.6919
    5AIB      N   59  20.250  21.066  20.730 -0.1779 -0.6140 -1.4345
    5AIB     HN   60  20.287  21.020  20.810  0.5393  2.0759 -0.0881
    5AIB     CA   61  20.351  21.143  20.653  0.4355  0.2099  0.7206
    5AIB    CB1   62  20.495  21.132  20.712 -0.7960  0.2224  0.8181
    5AIB   HB11   63  20.498  21.184  20.810  1.4428  1.0244  0.3885
    5AIB   HB12   64  20.571  21.184  20.650 -0.2879 -0.2681  1.0214
    5AIB   HB13   65  20.525  21.028  20.737  0.0820  0.9497  2.9718
    5AIB    CB2   66  20.314  21.298  20.640 -0.3783 -0.2144 -0.2019
    5AIB   HB21   67  20.305  21.323  20.748  1.5659  0.2396 -0.1190
    5AIB   HB22   68  20.216  21.307  20.588 -1.3176 -2.7041  0.9670
    5AIB   HB23   69  20.377  21.372  20.587  0.6425 -1.1108 -0.2579
    5AIB      C   70  20.352  21.087  20.509  0.1800 -0.0217  0.0057
    5AIB      O   71  20.358  21.158  20.406 -0.0958 -0.0760  0.6430
    6AIB      N   72  20.379  20.957  20.506  0.5218  0.2284  0.7664
    6AIB     HN   73  20.378  20.896  20.585  0.1243 -0.3582  0.3132
    6AIB     CA   74  20.389  20.888  20.384  0.0557  0.6923 -0.0700
    6AIB    CB1   75  20.396  20.734  20.416 -0.8460  0.1496 -0.1392
    6AIB   HB11   76  20.489  20.721  20.474 -1.2283 -0.3224  0.3789
    6AIB   HB12   77  20.404  20.683  20.317 -1.4742  0.1998 -0.2291
    6AIB   HB13   78  20.315  20.692  20.480 -0.2923 -0.9555 -0.1369
    6AIB    CB2   79  20.518  20.924  20.313  0.4403  0.1733  0.6848
    6AIB   HB21   80  20.516  21.018  20.254  0.7380 -0.3535 -0.1847
    6AIB   HB22   81  20.547  20.843  20.243  2.7629  0.1657  1.5297
    6AIB   HB23   82  20.598  20.933  20.390 -0.0895  1.7412  1.0772
    6AIB      C   83  20.274  20.899  20.280 -0.1973 -0.0616 -0.1730
    6AIB      O   84  20.294  20.916  20.161  0.5987  0.4120 -0.3717
    7AIB      N   85  20.150  20.873  20.333  0.2731 -0.2585  0.9544
    7AIB     HN   86  20.144  20.844  20.428 -1.5603 -0.2242  0.8892
    7AIB     CA   87  20.020  20.878  20.263  0.1778  0.2182 -0.1442
    7AIB    CB1   88  19.898  20.865  20.351  0.4958  0.3480  0.1184
    7AIB   HB11   89  19.904  20.767  20.402 -0.4945 -0.1377 -0.6849
    7AIB   HB12   90  19.803  20.892  20.300  1.1214  3.3856  0.3581
    7AIB   HB13   91  19.907  20.943  20.430  0.1468 -1.5885  2.1786
    7AIB    CB2   92  20.025  20.763  20.154 -0.2587  0.1927  0.1125
    7AIB   HB21   93  20.101  20.773  20.073 -2.1800  0.9637 -1.6966
    7AIB   HB22   94  19.924  20.743  20.110  0.0823 -0.0861 -0.5596
    7AIB   HB23   95  20.056  20.674  20.211  1.1411  1.1964  0.9588
    7AIB      C   96  19.997  21.020  20.192 -0.3752  0.7862  0.5432
    7AIB      O   97  19.948  21.028  20.079  0.3024  0.4916  0.2378
    8AIB      N   98  20.035  21.128  20.264  0.7353  0.2368  0.3068
    8AIB     HN   99  20.073  21.098  20.352  1.2843 -1.3256 -0.4245
    8AIB     CA  100  20.028  21.267  20.245  1.0916  0.2819 -0.6037
    8AIB    CB1  101  20.093  21.346  20.365  0.5212  0.3787 -0.1361
    8AIB   HB11  102  20.201  21.319  20.374 -0.4725 -4.5909 -0.2031
    8AIB   HB12  103  20.045  21.310  20.458  2.6137  0.4452  1.0343
    8AIB   HB13  104  20.070  21.454  20.355  1.0366  0.4265 -0.9097
    8AIB    CB2  105  19.872  21.295  20.231 -0.8767  0.0791  0.0702
    8AIB   HB21  106  19.832  21.276  20.333  2.0947  1.7970  1.6943
    8AIB   HB22  107  19.822  21.245  20.146  0.4659  2.0981 -2.0511
    8AIB   HB23  108  19.869  21.406  20.223  0.6798  0.1234 -0.3137
    8AIB      C  109  20.092  21.304  20.114 -0.1041 -0.7194 -0.1728
    8AIB      O  110  20.039  21.378  20.031 -0.5892  0.4260  1.1470
    9AIB      N  111  20.213  21.252  20.082  0.1995 -0.3037 -0.2486
    9AIB     HN  112  20.257  21.199  20.154  1.1056  0.2256 -0.4023
    9AIB     CA  113  20.292  21.278  19.963  0.4020 -0.4455  1.1061
    9AIB    CB1  114  20.432  21.226  19.989  0.7939 -0.6384  0.3099
    9AIB   HB11  115  20.428  21.120  20.020  0.8272 -0.0516  2.4568
    9AIB   HB12  116  20.479  21.286  20.070 -1.7754 -2.1797  3.1471
    9AIB   HB13  117  20.485  21.244  19.893  2.0432  3.0938  1.5148
    9AIB    CB2  118  20.297  21.425  19.911 -0.0731  0.2205 -0.3029
    9AIB   HB21  119  20.201  21.460  19.866 -1.2428 -1.3196  0.9054
    9AIB   HB22  120  20.370  21.441  19.829 -0.3614 -1.5936 -0.9361
    9AIB   HB23  121  20.340  21.482  19.996  0.2670 -0.3035 -0.1208
    9AIB      C  122  20.242  21.188  19.845  0.1452  0.0890  0.1118
    9AIB      O  123  20.283  21.195  19.729  0.1460 -0.1714 -0.5736
    9AIB     NT  124  20.150  21.089  19.871  0.4878 -0.4179  0.4419
    9AIB    HNT  125  20.118  21.067  19.963 -1.8512  0.8085 -0.0048
    9AIB    CAT  126  20.097  21.005  19.770 -0.2832 -0.2332  0.2296
    9AIB    HT1  127  19.989  20.992  19.790 -0.5757  4.2320  2.8135
    9AIB    HT2  128  20.152  20.909  19.759  0.7281  0.4065 -0.4703
    9AIB    HT3  129  20.114  21.047  19.669 -2.7094 -0.8816 -0.4983
  42.09246  42.09246  42.09246
