Protein
   42
    1ACE   HH31    1   9.132  13.015   6.421 -1.2028 -0.2961  2.2281
    1ACE    CH3    2   9.151  13.121   6.403 -0.0829 -0.7224  0.6824
    1ACE   HH32    3   9.244  13.139   6.457  0.7502 -0.8667 -0.6359
    1ACE   HH33    4   9.068  13.178   6.444  0.3658  1.4007 -1.2066
    1ACE      C    5   9.171  13.147   6.263 -0.4729  0.4556  0.5983
    1ACE      O    6   9.102  13.089   6.178  0.0749 -0.2845 -0.1153
    2ALA      N    7   9.257  13.245   6.241  0.6224 -0.8953 -0.5730
    2ALA      H    8   9.301  13.277   6.326  1.3507 -1.5188 -0.6891
    2ALA     CA    9   9.311  13.293   6.110  0.3770 -0.1818  0.2166
    2ALA     HA   10   9.258  13.381   6.072  0.8708 -0.4402 -1.1259
    2ALA     CB   11   9.453  13.342   6.126  0.0768  0.4227  0.1872
    2ALA    HB1   12   9.452  13.400   6.218 -1.6234  1.5421 -0.4846
    2ALA    HB2   13   9.520  13.257   6.140 -0.1015 -0.1244 -1.9495
    2ALA    HB3   14   9.477  13.394   6.033  0.4550 -1.8950 -1.0626
    2ALA      C   15   9.301  13.194   5.994  0.0498 -0.5495 -0.6246
    2ALA      O   16   9.386  13.109   5.988 -0.3479 -0.1857 -0.6823
    3ALA      N   17   9.211  13.195   5.898 -0.0247 -0.1073 -0.6791
    3ALA      H   18   9.230  13.143   5.813  1.3102  1.3478 -1.3341
    3ALA     CA   19   9.092  13.279   5.877 -0.3775  0.2778  0.6221
    3ALA     HA   20   9.074  13.337   5.968 -1.5587 -0.5537  0.9372
    3ALA     CB   21   9.124  13.379   5.763  0.2402  0.1256 -0.7806
    3ALA    HB1   22   9.209  13.440   5.794  0.3243 -1.3581  2.3494
    3ALA    HB2   23   9.153  13.313   5.682  2.3709 -2.3838  1.7810
    3ALA    HB3   24   9.039  13.443   5.741  0.2308 -0.7576 -3.5814
    3ALA      C   25   8.958  13.201   5.856 -0.2703 -0.3826 -0.6909
    3ALA      O   26   8.853  13.258   5.828 -0.3578  0.1231 -0.0122
    4ALA      N   27   8.962  13.072   5.876  0.0093 -0.2406 -0.4727
    4ALA      H   28   9.053  13.046   5.913 -0.0314  0.0121 -0.1841
    4ALA     CA   29   8.856  12.970   5.864 -0.9794  0.1159 -0.0917
    4ALA     HA   30   8.763  13.009   5.905 -0.4512 -0.6266  1.9308
    4ALA     CB   31   8.835  12.948   5.712  0.2178  0.8883  0.0424
    4ALA    HB1   32   8.741  12.895   5.699 -0.2150  1.4072  0.9143
    4ALA    HB2   33   8.833  13.044   5.660  3.7301  1.3354  0.3994
    4ALA    HB3   34   8.919  12.893   5.670  0.1090  1.1718 -0.5603
    4ALA      C   35   8.883  12.841   5.949 -0.3238 -0.8473  0.4864
    4ALA      O   36   8.807  12.746   5.927 -0.8212  0.0064 -0.2240
    5NME      N   37   8.983  12.837   6.042 -0.3770 -0.1263 -0.2866
    5NME      H   38   9.026  12.926   6.061  0.0412 -0.1989 -0.8738
    5NME    CH3   39   8.999  12.727   6.132 -0.6118  0.5903 -0.4322
    5NME   HH31   40   9.067  12.757   6.212  1.7337 -0.4216 -1.9280
    5NME   HH32   41   8.908  12.711   6.188  1.2846  0.5208  2.8528
    5NME   HH33   42   9.037  12.635   6.088  0.6198  0.8719 -0.0285
  20.91516  20.91516  20.91516
