Protein
   32
    1ACE   HH31    1  13.574   9.531   9.950  1.6752  2.3133  1.8876
    1ACE    CH3    2  13.492   9.543  10.021 -0.4396 -0.0031  0.0294
    1ACE   HH32    3  13.454   9.645  10.028 -0.8463 -0.1268 -0.3217
    1ACE   HH33    4  13.537   9.519  10.118  0.9389  0.3566 -0.4855
    1ACE      C    5  13.366   9.456  10.002 -0.8451  0.0827  0.3122
    1ACE      O    6  13.348   9.362  10.081  0.0791 -0.0847  0.4860
    2ALA      N    7  13.289   9.484   9.897 -0.2357  0.7083 -0.0893
    2ALA      H    8  13.297   9.580   9.866  0.9576  0.7546  0.3171
    2ALA     CA    9  13.154   9.426   9.880 -0.0246  0.0524  1.0717
    2ALA     HA   10  13.131   9.369   9.970 -2.3151  0.8063  1.0193
    2ALA     CB   11  13.058   9.546   9.881 -0.1604 -0.2154  0.2787
    2ALA    HB1   12  13.080   9.603   9.971  0.7281  2.6245 -1.6235
    2ALA    HB2   13  13.056   9.604   9.789 -0.8413  1.6018  1.3889
    2ALA    HB3   14  12.955   9.515   9.892 -1.6505  4.0530  0.1962
    2ALA      C   15  13.142   9.338   9.747  0.4596  0.5423 -0.2057
    2ALA      O   16  13.049   9.347   9.671 -0.6138  0.0398  0.0665
    3ALA      N   17  13.235   9.245   9.747  0.5024  0.3407 -1.2487
    3ALA      H   18  13.296   9.248   9.827 -1.2483  0.4573  0.1239
    3ALA     CA   19  13.264   9.135   9.658  0.0307  0.0942  0.3803
    3ALA     HA   20  13.362   9.098   9.686 -0.3306 -0.9059  0.3929
    3ALA     CB   21  13.163   9.030   9.693  0.5708  0.1591  0.2197
    3ALA    HB1   22  13.173   8.937   9.637 -0.3723 -0.6431  1.3097
    3ALA    HB2   23  13.160   9.009   9.800 -1.0514  0.1979  0.2114
    3ALA    HB3   24  13.063   9.070   9.672 -0.1771 -1.5630  0.3262
    3ALA      C   25  13.265   9.154   9.501 -0.3056 -0.2153 -0.0259
    3ALA      O   26  13.307   9.068   9.427 -0.1613  0.3917 -0.2210
    4NME      N   27  13.201   9.262   9.458 -0.1028 -0.0383  0.7126
    4NME      H   28  13.149   9.319   9.522 -0.1577  1.5648 -0.6520
    4NME    CH3   29  13.178   9.290   9.313 -0.7243 -0.1583  0.1526
    4NME   HH31   30  13.124   9.384   9.302  1.8702  1.4477  0.1129
    4NME   HH32   31  13.275   9.296   9.263 -0.4824 -1.1004  0.4875
    4NME   HH33   32  13.117   9.217   9.260  1.4663 -1.6978 -0.3841
  20.99041  20.99041  20.99041
