Protein
   32
    1ACE   HH31    1   9.969  14.026   9.837 -0.6084  0.0008 -0.8990
    1ACE    CH3    2  10.074  14.052   9.827 -0.4417 -0.3254  0.0009
    1ACE   HH32    3  10.139  14.010   9.904  0.4269 -1.7917 -1.4577
    1ACE   HH33    4  10.077  14.160   9.836 -1.1197 -0.3383  0.5024
    1ACE      C    5  10.115  13.992   9.696  0.9903  0.6448  0.2586
    1ACE      O    6  10.182  13.887   9.703 -0.0481 -0.1231  0.3842
    2ALA      N    7  10.061  14.055   9.592 -0.2721 -0.4836  0.0934
    2ALA      H    8   9.998  14.129   9.620 -0.3416 -0.5523  0.1213
    2ALA     CA    9  10.078  14.061   9.444  0.0932 -0.2041 -0.1187
    2ALA     HA   10   9.981  14.082   9.399 -0.3908 -0.8955  0.5644
    2ALA     CB   11  10.173  14.172   9.404  0.2222  0.7961 -0.0137
    2ALA    HB1   12  10.271  14.145   9.444  0.9639 -0.8419 -2.7518
    2ALA    HB2   13  10.173  14.173   9.295  2.0205 -2.0165 -0.1375
    2ALA    HB3   14  10.139  14.265   9.450 -0.5909 -0.0780  1.2186
    2ALA      C   15  10.125  13.930   9.369  0.2767  0.3057 -0.3328
    2ALA      O   16  10.151  13.933   9.248 -0.3980  0.6389  0.1315
    3ALA      N   17  10.153  13.811   9.436 -0.6896 -0.0396  0.0252
    3ALA      H   18  10.145  13.816   9.536  1.3260 -0.7751  0.2664
    3ALA     CA   19  10.219  13.691   9.383  0.1455  0.6406  0.5401
    3ALA     HA   20  10.314  13.724   9.341  0.8921 -0.0167  1.6484
    3ALA     CB   21  10.265  13.601   9.494  0.8805  0.5976 -0.0350
    3ALA    HB1   22  10.321  13.515   9.455  0.8230  1.5426 -2.3271
    3ALA    HB2   23  10.323  13.663   9.562  1.7633 -1.1580  0.9051
    3ALA    HB3   24  10.177  13.563   9.546  1.8578  0.0304  1.2960
    3ALA      C   25  10.126  13.612   9.276 -0.9899 -0.6099  0.4526
    3ALA      O   26  10.063  13.514   9.308  0.2919  0.0760 -0.8795
    4NME      N   27  10.122  13.661   9.155 -0.0965 -0.5045  0.5538
    4NME      H   28  10.168  13.751   9.145 -2.1661  0.5189 -0.5112
    4NME    CH3   29  10.047  13.615   9.038  0.2811 -0.3661  0.2793
    4NME   HH31   30  10.077  13.686   8.962 -0.7781  1.8121  1.7895
    4NME   HH32   31  10.066  13.510   9.014 -2.0442 -0.3834 -1.7371
    4NME   HH33   32   9.939  13.614   9.049  0.0392  1.6437 -1.5247
  20.99041  20.99041  20.99041
