Protein
   22
    1ACE   HH31    1   1.527   0.189   7.261  0.3405  0.3611 -0.7988
    1ACE    CH3    2   1.539   0.096   7.206 -0.6466 -0.3549  0.1564
    1ACE   HH32    3   1.589   0.018   7.263  0.8038  0.3745 -0.0751
    1ACE   HH33    4   1.606   0.105   7.120 -0.5315  1.7303  0.4081
    1ACE      C    5   1.406   0.030   7.164 -0.5937 -0.4448  0.5796
    1ACE      O    6   1.402  -0.094   7.153 -0.1956  0.2112 -0.2057
    2ALA      N    7   1.306   0.112   7.132 -0.2886 -0.1566 -0.9850
    2ALA      H    8   1.340   0.207   7.144  1.6617 -1.0994  2.7243
    2ALA     CA    9   1.163   0.085   7.127  0.3610 -0.2160  0.0484
    2ALA     HA   10   1.139   0.047   7.027 -0.4319  0.6291 -0.0932
    2ALA     CB   11   1.117  -0.011   7.240 -0.2691 -0.4367 -0.1654
    2ALA    HB1   12   1.178  -0.100   7.223 -1.3279 -1.1426 -0.3343
    2ALA    HB2   13   1.137   0.024   7.341 -0.4150  1.4545 -0.7494
    2ALA    HB3   14   1.015  -0.047   7.233  0.0016 -1.1274 -0.6685
    2ALA      C   15   1.091   0.221   7.159  0.3210  0.3460  0.5322
    2ALA      O   16   1.042   0.244   7.271 -0.4717  0.0291  0.6300
    3NME      N   17   1.099   0.314   7.064 -0.2145 -0.1368 -0.3374
    3NME      H   18   1.171   0.283   6.999  0.6130 -1.0484  0.9473
    3NME    CH3   19   1.059   0.449   7.061 -0.1357 -0.5251  0.0429
    3NME   HH31   20   0.996   0.462   6.973  0.6706 -0.7016 -0.5783
    3NME   HH32   21   1.018   0.475   7.159  0.8821 -0.0825  0.3662
    3NME   HH33   22   1.141   0.516   7.035 -0.8719  0.4289  0.1502
  10.72160  10.72160  10.72160
