Protein
   42
    1ACE   HH31    1  15.859   9.539  14.296 -1.7019 -2.3223 -0.1714
    1ACE    CH3    2  15.798   9.530  14.386 -0.8798  0.4035  0.7706
    1ACE   HH32    3  15.837   9.599  14.460  2.6224  0.0951 -0.5712
    1ACE   HH33    4  15.791   9.426  14.420 -0.0973  0.1746  0.2683
    1ACE      C    5  15.659   9.573  14.352 -0.3090 -0.7069  0.3727
    1ACE      O    6  15.564   9.497  14.354 -0.3918 -0.2937 -0.4170
    2ALA      N    7  15.653   9.699  14.314  0.2783 -0.0123  0.1774
    2ALA      H    8  15.740   9.749  14.314  0.3085 -0.0115  1.9521
    2ALA     CA    9  15.534   9.779  14.276  0.7712  0.5750  0.2985
    2ALA     HA   10  15.461   9.758  14.354 -0.5269 -0.3447 -1.1242
    2ALA     CB   11  15.569   9.926  14.280 -0.3543  0.0937  0.3405
    2ALA    HB1   12  15.602   9.961  14.378  1.2547  0.3306 -0.2597
    2ALA    HB2   13  15.645   9.953  14.207  0.2354 -0.8446  0.5907
    2ALA    HB3   14  15.479   9.975  14.242 -0.3712 -1.3478 -1.5523
    2ALA      C   15  15.450   9.727  14.151  0.2704  0.4837 -0.1993
    2ALA      O   16  15.380   9.806  14.090  0.0787  0.4015  0.0663
    3ALA      N   17  15.465   9.600  14.111 -1.0311  0.6110  0.1305
    3ALA      H   18  15.528   9.545  14.166 -1.0221  1.1027  0.6210
    3ALA     CA   19  15.401   9.537  13.997 -0.1890 -0.1183 -0.3130
    3ALA     HA   20  15.313   9.595  13.968  0.7119  1.1917 -0.4893
    3ALA     CB   21  15.498   9.529  13.882 -0.1408  0.5064  0.1550
    3ALA    HB1   22  15.433   9.506  13.797 -2.7252 -0.3574  2.2135
    3ALA    HB2   23  15.538   9.626  13.855  0.4327 -0.2425 -1.9647
    3ALA    HB3   24  15.576   9.452  13.890 -0.0740  0.1859 -2.5224
    3ALA      C   25  15.349   9.401  14.044  0.2758 -0.5404  0.4751
    3ALA      O   26  15.384   9.302  13.987  0.1485  0.5281 -0.2864
    4ALA      N   27  15.265   9.406  14.151  0.3870  0.4255 -0.6008
    4ALA      H   28  15.244   9.497  14.190  0.1841 -0.4797  1.5197
    4ALA     CA   29  15.219   9.295  14.229 -0.5375  0.4819  1.0011
    4ALA     HA   30  15.141   9.249  14.168 -0.5024  1.7269 -0.0279
    4ALA     CB   31  15.333   9.194  14.266  0.3394 -0.5067 -0.0401
    4ALA    HB1   32  15.393   9.163  14.181  0.2595  1.4108 -0.8431
    4ALA    HB2   33  15.400   9.219  14.349  0.3179  0.3602 -0.2770
    4ALA    HB3   34  15.277   9.108  14.304 -0.8063  0.4389  0.4792
    4ALA      C   35  15.153   9.335  14.362  0.2865  0.1827 -0.0795
    4ALA      O   36  15.168   9.450  14.399 -0.2316 -0.6325 -0.4365
    5NME      N   37  15.068   9.251  14.418  0.3095 -0.0998  0.4464
    5NME      H   38  15.056   9.168  14.363  0.7663  1.4458 -2.1406
    5NME    CH3   39  14.988   9.275  14.539  0.1588  0.0023 -0.1339
    5NME   HH31   40  14.915   9.349  14.505 -2.2286 -1.6112  1.1787
    5NME   HH32   41  14.937   9.186  14.577 -0.1926 -0.3877 -1.4741
    5NME   HH33   42  15.049   9.310  14.622  0.9958 -1.5108 -0.0787
  20.91516  20.91516  20.91516
