Protein
   42
    1ACE   HH31    1   6.050   9.185  13.335  1.4217  0.2172  0.0255
    1ACE    CH3    2   6.034   9.107  13.260 -0.2428  0.5206  0.0435
    1ACE   HH32    3   5.939   9.057  13.277 -0.6554  0.4912 -2.0514
    1ACE   HH33    4   6.113   9.034  13.277 -1.9190 -1.2132  0.7986
    1ACE      C    5   6.027   9.147  13.112  0.1462  0.3656 -0.3091
    1ACE      O    6   5.931   9.110  13.042  0.1404  0.2598  0.1557
    2ALA      N    7   6.134   9.213  13.066 -0.9479 -0.1728 -0.3045
    2ALA      H    8   6.206   9.239  13.131 -0.3728 -0.8987 -0.6330
    2ALA     CA    9   6.171   9.256  12.932  0.5213 -0.6594  0.5190
    2ALA     HA   10   6.085   9.297  12.881  1.6342  3.2498  1.4167
    2ALA     CB   11   6.266   9.373  12.950  0.3750  0.0889 -1.1164
    2ALA    HB1   12   6.218   9.446  13.015 -0.7368 -1.5615  0.0314
    2ALA    HB2   13   6.351   9.325  13.000  0.8506 -0.1289 -2.0817
    2ALA    HB3   14   6.307   9.425  12.863  2.3170  2.7491  1.2032
    2ALA      C   15   6.211   9.138  12.844  0.1699  0.2682 -0.2856
    2ALA      O   16   6.231   9.155  12.724 -0.4121 -0.3199  0.1476
    3ALA      N   17   6.216   9.016  12.902  0.1478  0.4892 -0.1834
    3ALA      H   18   6.176   9.017  12.995 -0.9912  0.1837 -0.6632
    3ALA     CA   19   6.248   8.888  12.838 -0.3507  0.4170  0.8928
    3ALA     HA   20   6.345   8.852  12.874 -0.6739 -1.0313  0.3554
    3ALA     CB   21   6.147   8.784  12.892 -0.1125  0.2291 -0.1793
    3ALA    HB1   22   6.157   8.772  12.999 -0.8259 -1.1665 -0.2472
    3ALA    HB2   23   6.048   8.820  12.861 -0.4949  1.1661  1.9584
    3ALA    HB3   24   6.158   8.688  12.842 -4.9875 -0.2575 -0.7834
    3ALA      C   25   6.256   8.890  12.684  0.3359 -0.5073 -0.0085
    3ALA      O   26   6.364   8.888  12.631  0.1903 -0.3563 -0.1026
    4ALA      N   27   6.144   8.882  12.615  0.1417 -0.0331 -0.1595
    4ALA      H   28   6.051   8.884  12.654 -0.3536  0.9522 -1.3116
    4ALA     CA   29   6.141   8.894  12.467 -0.4444  0.2229 -0.1138
    4ALA     HA   30   6.184   8.799  12.434 -0.4378 -1.0393  3.1479
    4ALA     CB   31   5.989   8.887  12.423 -0.1431  0.4896 -0.3821
    4ALA    HB1   32   5.986   8.879  12.314  4.3485  0.3547 -0.6655
    4ALA    HB2   33   5.947   8.794  12.462  3.5837 -1.7471 -1.1534
    4ALA    HB3   34   5.945   8.978  12.464  0.1700  0.6198 -0.3297
    4ALA      C   35   6.212   9.005  12.386  0.3456  0.0322  0.2131
    4ALA      O   36   6.224   8.985  12.264 -0.1011 -0.3864  0.0032
    5NME      N   37   6.272   9.109  12.449 -0.3799  0.5567 -0.2278
    5NME      H   38   6.285   9.106  12.549  0.4967  1.5036 -0.2857
    5NME    CH3   39   6.323   9.221  12.382 -0.0335 -0.0600  0.3645
    5NME   HH31   40   6.432   9.215  12.375  0.0190 -0.6505  1.4089
    5NME   HH32   41   6.281   9.237  12.283 -0.4639  0.3673  0.6105
    5NME   HH33   42   6.302   9.313  12.437 -0.8406  0.4763 -0.8059
  20.91516  20.91516  20.91516
