Protein
   42
    1ACE   HH31    1  12.551  13.299   8.833  0.8301  1.0410  0.0888
    1ACE    CH3    2  12.551  13.235   8.921 -0.7821  0.0685 -0.5625
    1ACE   HH32    3  12.509  13.136   8.909 -1.5101  0.2814  0.1476
    1ACE   HH33    4  12.513  13.292   9.006  0.8270  0.3933 -0.0009
    1ACE      C    5  12.701  13.214   8.956  0.1899  0.6024  0.0410
    1ACE      O    6  12.753  13.107   8.950 -0.1820  0.6180 -0.5016
    2ALA      N    7  12.756  13.323   9.004  0.4607  0.0518  0.1076
    2ALA      H    8  12.706  13.411   8.995  0.9616  0.2615 -0.6464
    2ALA     CA    9  12.900  13.331   9.021  0.2519 -0.0024 -0.6084
    2ALA     HA   10  12.954  13.276   8.943 -1.7559 -1.7648 -0.8583
    2ALA     CB   11  12.935  13.479   9.021  0.1178  0.0576  0.4443
    2ALA    HB1   12  12.888  13.521   9.109 -3.4753 -2.3646 -0.1118
    2ALA    HB2   13  13.042  13.501   9.021  0.8078 -2.8253  0.9790
    2ALA    HB3   14  12.896  13.520   8.928 -1.7947 -2.3954  0.0556
    2ALA      C   15  12.946  13.272   9.159 -1.0158 -0.5610 -0.2437
    2ALA      O   16  13.065  13.270   9.188 -0.0957 -0.9093  0.4082
    3ALA      N   17  12.862  13.210   9.243  0.0687 -0.4623 -0.0819
    3ALA      H   18  12.767  13.198   9.211  0.1366 -0.7997 -0.1564
    3ALA     CA   19  12.886  13.171   9.382  0.2320  0.3453 -0.4768
    3ALA     HA   20  12.950  13.237   9.440 -1.2296  0.7223  0.7727
    3ALA     CB   21  12.746  13.167   9.442 -0.0722  0.7226 -0.3046
    3ALA    HB1   22  12.689  13.259   9.432  0.0800  1.2242  2.6136
    3ALA    HB2   23  12.699  13.073   9.413 -0.3120  0.9019 -0.5171
    3ALA    HB3   24  12.750  13.158   9.550  2.8968  0.1478 -0.3564
    3ALA      C   25  12.956  13.035   9.386 -0.2591 -0.1266 -0.7317
    3ALA      O   26  12.906  12.942   9.446  0.0179  0.6917 -0.2086
    4ALA      N   27  13.069  13.033   9.314 -0.0512  0.0292  0.3273
    4ALA      H   28  13.087  13.113   9.256  2.3058 -0.4089  0.3756
    4ALA     CA   29  13.151  12.915   9.272  0.3855 -0.8851  0.3852
    4ALA     HA   30  13.249  12.934   9.316 -0.3550  1.5099  1.2108
    4ALA     CB   31  13.096  12.774   9.305 -0.1528  0.6402 -0.1700
    4ALA    HB1   32  13.172  12.699   9.278  1.9800  3.0459 -1.3577
    4ALA    HB2   33  13.092  12.767   9.413  2.3498  0.1862 -0.0235
    4ALA    HB3   34  13.002  12.751   9.255 -0.9868  0.3696  1.4752
    4ALA      C   35  13.167  12.924   9.117 -0.6676  0.1806 -0.1964
    4ALA      O   36  13.277  12.908   9.063  0.2497  0.1193 -0.2736
    5NME      N   37  13.064  12.955   9.045 -0.1345 -0.0333 -0.2494
    5NME      H   38  12.980  12.983   9.093  1.0513  2.0885  0.7304
    5NME    CH3   39  13.062  12.981   8.902 -0.2687  0.3527 -0.1580
    5NME   HH31   40  12.960  12.995   8.867 -0.5545 -1.1451  0.0272
    5NME   HH32   41  13.125  13.065   8.873 -0.2117 -0.1332 -1.4828
    5NME   HH33   42  13.098  12.895   8.845  1.5587  1.4023 -0.6736
  20.91516  20.91516  20.91516
