Protein
   32
    1ACE   HH31    1  12.548  13.106  10.694 -0.5084 -3.0526 -1.6753
    1ACE    CH3    2  12.469  13.123  10.620 -0.4582  0.0016 -1.1780
    1ACE   HH32    3  12.385  13.169  10.671  0.8820  0.6776  0.5679
    1ACE   HH33    4  12.440  13.021  10.596 -3.2137  0.1866  0.9828
    1ACE      C    5  12.517  13.230  10.525 -1.1158  0.0487 -0.0330
    1ACE      O    6  12.466  13.341  10.520 -0.6159 -0.5481  0.3370
    2ALA      N    7  12.622  13.194  10.450 -0.8559 -0.0196  0.5234
    2ALA      H    8  12.649  13.097  10.451 -0.1770  0.0783 -1.9227
    2ALA     CA    9  12.706  13.281  10.372 -0.1195  0.4804  0.8267
    2ALA     HA   10  12.769  13.337  10.441 -0.0354 -0.7257  1.7468
    2ALA     CB   11  12.802  13.177  10.311 -0.1550  0.1449  0.9076
    2ALA    HB1   12  12.748  13.108  10.245 -1.1785  0.5556  1.2944
    2ALA    HB2   13  12.883  13.229  10.260  0.2321  0.0832  1.4502
    2ALA    HB3   14  12.856  13.118  10.384  1.4460  1.5311  0.8710
    2ALA      C   15  12.655  13.388  10.275 -0.1561  0.1761  0.5891
    2ALA      O   16  12.726  13.458  10.199  0.3629 -0.3476 -0.0685
    3ALA      N   17  12.526  13.409  10.269 -0.0847  0.1360  0.1209
    3ALA      H   18  12.475  13.359  10.340 -1.0499 -1.2108 -1.4215
    3ALA     CA   19  12.452  13.501  10.187  0.5156 -0.1623 -0.0377
    3ALA     HA   20  12.349  13.484  10.219  0.8895  0.7355  1.7518
    3ALA     CB   21  12.475  13.647  10.231 -0.0605 -0.2121 -0.4816
    3ALA    HB1   22  12.575  13.680  10.203  0.2785  1.5362  2.4009
    3ALA    HB2   23  12.398  13.708  10.183 -2.0918 -0.3323  2.4003
    3ALA    HB3   24  12.464  13.663  10.338  1.2331 -1.4154 -0.1455
    3ALA      C   25  12.468  13.468  10.035 -0.1591 -0.5327  0.3154
    3ALA      O   26  12.377  13.410   9.983  0.3155  0.2581  0.9157
    4NME      N   27  12.580  13.497   9.968  0.3726  0.0775 -0.1496
    4NME      H   28  12.654  13.528  10.028  0.1803 -1.3065  0.8603
    4NME    CH3   29  12.600  13.463   9.825 -0.0060 -0.2751 -0.1430
    4NME   HH31   30  12.690  13.405   9.805  1.3421  1.6575  0.0588
    4NME   HH32   31  12.519  13.397   9.793 -1.9066  2.0799 -0.4881
    4NME   HH33   32  12.599  13.551   9.760 -0.8030  0.1836  0.4740
  20.99041  20.99041  20.99041
