Protein
   42
    1ACE   HH31    1   6.568   4.642   6.166 -0.1308  1.6541 -1.5418
    1ACE    CH3    2   6.658   4.673   6.219 -0.0416 -0.4840 -0.3446
    1ACE   HH32    3   6.669   4.626   6.317 -0.4421  2.3282  1.1964
    1ACE   HH33    4   6.654   4.780   6.238  0.4941 -0.3513 -0.9480
    1ACE      C    5   6.773   4.626   6.136  0.0004 -0.4640 -0.1055
    1ACE      O    6   6.776   4.509   6.113  0.6394  0.1998  0.2766
    2ALA      N    7   6.858   4.715   6.092 -0.3346  0.0988  0.6369
    2ALA      H    8   6.839   4.813   6.106 -1.2318 -0.2924  2.4696
    2ALA     CA    9   6.974   4.688   6.009  0.0738  1.0794  0.1171
    2ALA     HA   10   6.975   4.583   5.982  1.3200  1.0147  0.3680
    2ALA     CB   11   6.970   4.764   5.878  0.2465  0.3818  0.4076
    2ALA    HB1   12   6.871   4.760   5.832 -0.8197 -0.6755  2.6056
    2ALA    HB2   13   6.997   4.868   5.896 -0.8823  0.8577 -0.5353
    2ALA    HB3   14   7.038   4.723   5.803 -0.9498  1.3317 -1.2749
    2ALA      C   15   7.100   4.721   6.093  1.0802  0.1080 -0.0146
    2ALA      O   16   7.121   4.836   6.133 -0.5815  0.5545 -0.0395
    3ALA      N   17   7.193   4.630   6.115 -0.7243  0.1638 -0.1264
    3ALA      H   18   7.256   4.672   6.182 -2.2121  1.7449  0.3277
    3ALA     CA   19   7.210   4.488   6.077  0.2806 -0.3588 -0.2151
    3ALA     HA   20   7.313   4.470   6.109  0.5424 -0.1135 -0.8912
    3ALA     CB   21   7.108   4.405   6.153 -0.2994 -0.3994  0.0544
    3ALA    HB1   22   7.016   4.397   6.094 -0.8024  1.2623  0.5687
    3ALA    HB2   23   7.141   4.302   6.164  1.2210 -0.0662 -1.0098
    3ALA    HB3   24   7.102   4.444   6.255  0.2221 -1.1094  0.3678
    3ALA      C   25   7.216   4.464   5.924  0.0130 -0.9594  0.2583
    3ALA      O   26   7.253   4.553   5.848  0.0146 -0.6417  0.0729
    4ALA      N   27   7.185   4.340   5.879 -0.3395  0.1949 -0.1150
    4ALA      H   28   7.189   4.268   5.950 -0.5000 -0.9312 -1.1979
    4ALA     CA   29   7.180   4.296   5.741 -0.1110 -0.3722  0.2164
    4ALA     HA   30   7.127   4.201   5.733 -2.3749  0.7343  1.3720
    4ALA     CB   31   7.087   4.381   5.652  0.0907 -0.0581  0.9597
    4ALA    HB1   32   7.026   4.313   5.593  1.0047  0.6626 -0.9289
    4ALA    HB2   33   7.019   4.450   5.701 -2.0864 -1.4690  0.0411
    4ALA    HB3   34   7.125   4.440   5.569 -0.8027 -2.4697 -1.2850
    4ALA      C   35   7.326   4.274   5.683  0.2760 -0.0099  0.2548
    4ALA      O   36   7.348   4.164   5.634 -0.2059 -0.0625  0.5170
    5NME      N   37   7.417   4.368   5.696  0.4426 -0.8565 -0.2007
    5NME      H   38   7.387   4.458   5.731 -0.8345 -0.5406 -1.9363
    5NME    CH3   39   7.560   4.342   5.665  0.0863 -0.1584  0.1947
    5NME   HH31   40   7.575   4.242   5.705 -1.9341 -1.0905 -1.2199
    5NME   HH32   41   7.565   4.350   5.556  0.6936  2.6478  0.3461
    5NME   HH33   42   7.633   4.410   5.709 -1.9261  1.8226  0.6043
  20.91516  20.91516  20.91516
