Protein
   32
    1ACE   HH31    1  11.347  15.498   7.205 -1.0758  2.2646 -0.0718
    1ACE    CH3    2  11.424  15.560   7.250  0.3684  0.3887  0.1702
    1ACE   HH32    3  11.379  15.603   7.340  1.9518 -1.1812  1.8080
    1ACE   HH33    4  11.456  15.643   7.187 -1.0969  1.5075  0.8653
    1ACE      C    5  11.534  15.461   7.278 -0.3612  0.3595  0.1133
    1ACE      O    6  11.643  15.481   7.230  0.3090 -0.2567  0.6703
    2ALA      N    7  11.505  15.351   7.352  0.2439 -0.6008 -0.1556
    2ALA      H    8  11.411  15.351   7.387  0.7067  0.1181  1.1584
    2ALA     CA    9  11.601  15.253   7.407  0.5018 -0.5927  0.3774
    2ALA     HA   10  11.541  15.180   7.461  0.2286 -1.1437 -0.6517
    2ALA     CB   11  11.666  15.161   7.297 -0.2218 -0.3996  0.5052
    2ALA    HB1   12  11.743  15.215   7.241 -0.5073 -1.0736 -0.5527
    2ALA    HB2   13  11.722  15.081   7.345  0.3024 -1.4911 -1.7771
    2ALA    HB3   14  11.588  15.123   7.232 -1.3820 -0.7622  2.0722
    2ALA      C   15  11.710  15.319   7.500 -0.0778 -0.1370  0.1278
    2ALA      O   16  11.755  15.254   7.591 -0.1063 -0.5696  0.9668
    3ALA      N   17  11.732  15.452   7.492  0.5489 -0.2527 -0.1902
    3ALA      H   18  11.686  15.496   7.414  0.3133 -0.2365 -0.0421
    3ALA     CA   19  11.763  15.538   7.606 -0.3160 -0.1168  0.2843
    3ALA     HA   20  11.830  15.489   7.677 -0.6586 -1.9734 -0.6368
    3ALA     CB   21  11.841  15.668   7.561 -0.5095 -0.1168 -0.5363
    3ALA    HB1   22  11.783  15.743   7.507  3.0321  2.9245 -0.5011
    3ALA    HB2   23  11.898  15.702   7.647 -2.9768 -1.5618  1.8351
    3ALA    HB3   24  11.923  15.639   7.495 -0.0599  1.3195 -0.6240
    3ALA      C   25  11.624  15.567   7.667 -0.4388  0.4778 -0.2672
    3ALA      O   26  11.516  15.575   7.609 -0.4582 -0.4451 -0.3180
    4NME      N   27  11.638  15.599   7.794  0.2971 -0.0625 -0.0030
    4NME      H   28  11.730  15.615   7.832 -0.6211  3.3098  1.2245
    4NME    CH3   29  11.522  15.621   7.888 -0.4648 -0.2075 -0.5236
    4NME   HH31   30  11.563  15.661   7.980  0.5642 -2.1666 -0.0631
    4NME   HH32   31  11.443  15.679   7.841  0.0828  0.9521 -0.0397
    4NME   HH33   32  11.478  15.523   7.908  0.4155 -0.7195 -1.0110
  20.99041  20.99041  20.99041
