Protein
   32
    1ACE   HH31    1  13.116  12.224  11.911 -0.0278  2.1074 -0.1539
    1ACE    CH3    2  13.219  12.235  11.875  0.0162  0.2703 -0.6752
    1ACE   HH32    3  13.216  12.221  11.767 -0.2130  0.4015 -0.6871
    1ACE   HH33    4  13.285  12.172  11.935 -1.2794  0.6146  1.2088
    1ACE      C    5  13.256  12.378  11.907  0.3337 -0.5346 -0.1809
    1ACE      O    6  13.288  12.406  12.020 -0.4386 -0.3503 -0.0987
    2ALA      N    7  13.249  12.465  11.807  0.1412  0.3808 -0.8262
    2ALA      H    8  13.230  12.421  11.718 -0.0515 -2.0868  0.3343
    2ALA     CA    9  13.303  12.603  11.813  0.4373 -0.1753 -0.3017
    2ALA     HA   10  13.270  12.636  11.714 -1.9698 -2.1550 -0.2239
    2ALA     CB   11  13.241  12.683  11.923  0.1077  0.2406 -0.4500
    2ALA    HB1   12  13.133  12.665  11.924 -0.2193  1.6827  2.6203
    2ALA    HB2   13  13.284  12.658  12.020  1.1932  0.2566 -0.9029
    2ALA    HB3   14  13.252  12.785  11.886  2.1743 -0.5413 -2.2308
    2ALA      C   15  13.455  12.607  11.818 -0.2207  0.2072 -0.2068
    2ALA      O   16  13.524  12.512  11.821 -0.4528  0.2163  0.1922
    3ALA      N   17  13.504  12.729  11.821 -0.7729 -0.0162  0.1101
    3ALA      H   18  13.442  12.804  11.849 -2.0030 -0.4242 -1.3492
    3ALA     CA   19  13.647  12.764  11.841 -0.1504 -0.2777  0.4558
    3ALA     HA   20  13.691  12.689  11.906  0.8474 -0.4589 -0.3987
    3ALA     CB   21  13.711  12.753  11.696  0.7862 -0.3078 -0.1344
    3ALA    HB1   22  13.705  12.846  11.639  0.9181 -0.3897 -0.2876
    3ALA    HB2   23  13.819  12.740  11.701  0.8562  0.1543 -0.2078
    3ALA    HB3   24  13.680  12.663  11.643  1.4052 -0.2422 -0.6267
    3ALA      C   25  13.666  12.903  11.895 -0.3466 -0.3034 -0.4183
    3ALA      O   26  13.573  12.989  11.892 -0.3172 -0.2709 -0.1197
    4NME      N   27  13.785  12.927  11.944  0.3013 -0.0783  0.1630
    4NME      H   28  13.850  12.853  11.921 -0.6483 -1.2573  1.1669
    4NME    CH3   29  13.827  13.060  11.991  0.4989  0.0440  0.3322
    4NME   HH31   30  13.928  13.068  12.030  0.2443  1.7454  0.7294
    4NME   HH32   31  13.814  13.137  11.915 -3.4257  1.8723  2.5993
    4NME   HH33   32  13.764  13.095  12.072  2.1696  3.4631  0.3698
  20.99041  20.99041  20.99041
