Protein
   42
    1ACE   HH31    1  12.728   6.088  16.551  1.7883  0.6872 -2.6844
    1ACE    CH3    2  12.812   6.091  16.621 -0.1194 -0.1769 -0.2335
    1ACE   HH32    3  12.778   6.060  16.720 -0.1218 -0.1140 -0.2166
    1ACE   HH33    4  12.836   6.197  16.617 -1.2367  0.0502 -2.2251
    1ACE      C    5  12.924   6.010  16.578 -0.5745  0.1730 -0.7516
    1ACE      O    6  12.902   5.916  16.499 -0.1159 -0.9618 -0.3194
    2ALA      N    7  13.049   6.050  16.609 -0.2315  0.1204 -0.1467
    2ALA      H    8  13.058   6.130  16.670  2.5144 -0.0895 -0.1778
    2ALA     CA    9  13.176   5.998  16.554  0.0485 -0.0168  0.2467
    2ALA     HA   10  13.156   5.895  16.526  1.9850 -0.0334 -1.2940
    2ALA     CB   11  13.210   6.079  16.429 -0.4063 -0.1913  0.1065
    2ALA    HB1   12  13.316   6.074  16.401 -0.0416  1.4661  1.0440
    2ALA    HB2   13  13.148   6.060  16.342 -0.0231  0.6335 -0.3694
    2ALA    HB3   14  13.198   6.185  16.450 -1.9317 -0.3894  0.3226
    2ALA      C   15  13.286   6.011  16.657 -0.5516 -0.7304  0.8568
    2ALA      O   16  13.314   6.124  16.703  0.1806 -0.4123  0.5155
    3ALA      N   17  13.363   5.904  16.697 -0.1936 -0.4073  0.0300
    3ALA      H   18  13.434   5.933  16.763  0.0190  1.4354 -0.9368
    3ALA     CA   19  13.353   5.766  16.644  0.1400  0.0691 -0.2254
    3ALA     HA   20  13.251   5.734  16.624  0.7427 -0.8095 -2.1604
    3ALA     CB   21  13.426   5.754  16.507  0.4999 -0.0078 -0.2847
    3ALA    HB1   22  13.442   5.649  16.482  0.1111 -0.0891 -0.2147
    3ALA    HB2   23  13.372   5.802  16.425  0.7361 -2.0124 -1.6777
    3ALA    HB3   24  13.529   5.790  16.515  0.1729  0.9925 -0.3945
    3ALA      C   25  13.394   5.662  16.750 -0.4170  0.2588  0.6729
    3ALA      O   26  13.469   5.685  16.843 -0.3503 -0.6988  0.0020
    4ALA      N   27  13.344   5.537  16.734 -0.1092 -0.0454  0.3193
    4ALA      H   28  13.280   5.511  16.660 -1.6733 -3.7480  2.6625
    4ALA     CA   29  13.397   5.413  16.801 -0.0439 -0.2290  0.2118
    4ALA     HA   30  13.383   5.425  16.908 -0.9582 -0.7616  0.1626
    4ALA     CB   31  13.296   5.304  16.767 -0.2430 -0.0204  0.6236
    4ALA    HB1   32  13.331   5.211  16.812  0.5176 -0.2953 -0.4872
    4ALA    HB2   33  13.198   5.323  16.810 -0.5903 -1.0756  0.3398
    4ALA    HB3   34  13.294   5.279  16.661  3.0321  1.8398 -0.0033
    4ALA      C   35  13.547   5.374  16.769  0.0230  0.3178  0.4677
    4ALA      O   36  13.578   5.261  16.723 -0.8639  0.6915 -0.1222
    5NME      N   37  13.638   5.472  16.760  0.0858  0.0547  0.2646
    5NME      H   38  13.610   5.559  16.802  0.1466  0.7863 -1.1301
    5NME    CH3   39  13.776   5.467  16.714  0.5699  0.2773  0.1000
    5NME   HH31   40  13.843   5.501  16.793  0.7178 -0.0276  0.1157
    5NME   HH32   41  13.793   5.362  16.692 -1.6739 -0.4467  1.4402
    5NME   HH33   42  13.783   5.532  16.627  0.2293  0.9253  0.5387
  20.91516  20.91516  20.91516
