Protein
   42
    1ACE   HH31    1  12.765   8.569  11.993  1.3349  0.2552  0.8778
    1ACE    CH3    2  12.732   8.626  12.079  0.0709  0.2906  0.3885
    1ACE   HH32    3  12.810   8.623  12.155 -0.3786  1.7860  0.9644
    1ACE   HH33    4  12.633   8.592  12.111 -0.4024  0.6819 -0.5930
    1ACE      C    5  12.734   8.768  12.026 -0.1339  0.1913 -0.3067
    1ACE      O    6  12.649   8.847  12.061 -0.0633  0.4842  0.3592
    2ALA      N    7  12.829   8.785  11.934 -0.1731 -0.7734  0.5661
    2ALA      H    8  12.881   8.703  11.909 -0.1235 -0.6835  0.3728
    2ALA     CA    9  12.841   8.890  11.833  0.2079 -0.0415  0.1063
    2ALA     HA   10  12.944   8.900  11.800 -0.8202  1.9831 -2.9730
    2ALA     CB   11  12.762   8.848  11.705  0.0017 -0.3925 -0.4565
    2ALA    HB1   12  12.777   8.933  11.638  3.4521 -1.0653 -0.6840
    2ALA    HB2   13  12.796   8.758  11.655 -1.4859 -1.1452 -0.1663
    2ALA    HB3   14  12.654   8.843  11.721  0.0563 -0.3853 -0.0783
    2ALA      C   15  12.809   9.029  11.885  0.8722 -0.5339 -0.2604
    2ALA      O   16  12.719   9.087  11.828 -0.3016 -0.2854 -0.0305
    3ALA      N   17  12.861   9.069  12.001  0.3863 -0.5340 -0.4462
    3ALA      H   18  12.819   9.158  12.022  1.8048 -0.2278  1.3872
    3ALA     CA   19  12.972   9.024  12.087 -0.0305  0.1220  0.1527
    3ALA     HA   20  13.028   8.941  12.045 -1.4450  0.1119 -1.8918
    3ALA     CB   21  13.068   9.145  12.097  0.5218  0.3838  1.0483
    3ALA    HB1   22  13.123   9.129  12.005 -0.6529 -2.8155  0.7658
    3ALA    HB2   23  13.018   9.242  12.097  0.4669  0.3946  2.5839
    3ALA    HB3   24  13.136   9.140  12.183  2.5069 -0.3063 -0.4948
    3ALA      C   25  12.929   8.978  12.232  0.3055  0.3200  0.0125
    3ALA      O   26  12.991   8.896  12.302 -0.3813 -0.2440 -0.1011
    4ALA      N   27  12.812   9.029  12.273 -0.8232  0.0231  0.5435
    4ALA      H   28  12.757   9.084  12.208  1.6979  0.3542 -1.4913
    4ALA     CA   29  12.760   9.028  12.407 -0.3430 -0.3509  0.7779
    4ALA     HA   30  12.829   8.973  12.471 -0.5065 -1.1089  0.3064
    4ALA     CB   31  12.779   9.175  12.451  0.4258  0.6002 -0.7365
    4ALA    HB1   32  12.699   9.237  12.411 -0.8984  0.6541  1.7977
    4ALA    HB2   33  12.768   9.161  12.559 -1.5018  0.8149 -0.8709
    4ALA    HB3   34  12.871   9.225  12.422  0.6593  1.4595  1.3042
    4ALA      C   35  12.609   8.991  12.415 -0.3111  0.1565  0.0053
    4ALA      O   36  12.549   9.009  12.518  0.1184 -0.2821  0.2810
    5NME      N   37  12.546   8.945  12.304  0.7041 -0.2254 -0.4503
    5NME      H   38  12.601   8.931  12.220 -1.1295  0.7582 -1.8993
    5NME    CH3   39  12.407   8.906  12.284  1.1746 -0.2382 -0.2554
    5NME   HH31   40  12.343   8.927  12.370 -0.3511 -1.8757 -0.9222
    5NME   HH32   41  12.359   8.949  12.196 -0.0197 -0.8036  0.0903
    5NME   HH33   42  12.414   8.798  12.272 -0.4782 -0.6257  1.7076
  20.91516  20.91516  20.91516
