Protein
   42
    1ACE   HH31    1  10.453   8.246  10.270  0.6537  2.1398  0.9635
    1ACE    CH3    2  10.348   8.253  10.299  0.1792  0.7124 -0.3159
    1ACE   HH32    3  10.285   8.269  10.212 -1.8080 -0.0976  0.9134
    1ACE   HH33    4  10.328   8.331  10.371 -1.4713 -1.3602  1.6093
    1ACE      C    5  10.310   8.122  10.377  0.1334  0.7466 -0.0586
    1ACE      O    6  10.392   8.052  10.432  0.2170 -0.2375 -0.5603
    2ALA      N    7  10.182   8.108  10.384  0.3034 -0.2486 -0.3650
    2ALA      H    8  10.124   8.160  10.320 -0.3864 -0.5262  0.0243
    2ALA     CA    9  10.108   8.014  10.474 -0.4847  0.6635  0.2454
    2ALA     HA   10  10.167   7.923  10.474  0.3174  1.1194 -1.8094
    2ALA     CB   11  10.104   8.064  10.623 -0.1924 -0.1757  0.1133
    2ALA    HB1   12  10.027   8.140  10.634 -0.3808 -0.3277 -0.0971
    2ALA    HB2   13  10.074   7.981  10.687  0.2370  0.8480  1.7039
    2ALA    HB3   14  10.201   8.099  10.658 -0.2757 -0.0420  0.2201
    2ALA      C   15   9.966   7.993  10.407 -0.4497  0.1790 -0.0476
    2ALA      O   16   9.905   8.084  10.349 -0.1206  0.4580 -0.1429
    3ALA      N   17   9.912   7.872  10.412 -0.1490 -0.1938 -0.9938
    3ALA      H   18   9.815   7.883  10.386  0.0527  0.5573 -1.4399
    3ALA     CA   19   9.944   7.737  10.460 -0.1185 -0.3746 -0.2309
    3ALA     HA   20   9.959   7.720  10.567 -1.8716 -2.7900 -0.2962
    3ALA     CB   21   9.823   7.646  10.427 -0.2650  0.8140  0.3171
    3ALA    HB1   22   9.817   7.642  10.318  0.6297 -0.4992  0.2879
    3ALA    HB2   23   9.826   7.549  10.477 -0.7344  0.2241 -0.7747
    3ALA    HB3   24   9.730   7.693  10.460 -1.2788  0.5281 -1.8670
    3ALA      C   25  10.068   7.671  10.398  1.2460 -0.7641 -0.3063
    3ALA      O   26  10.147   7.608  10.461 -0.0186  0.3712 -0.1118
    4ALA      N   27  10.092   7.712  10.276  0.4039 -0.1407  0.1829
    4ALA      H   28  10.021   7.770  10.233 -1.4364 -1.4215  1.3739
    4ALA     CA   29  10.209   7.678  10.196  0.3410  0.0842  0.2210
    4ALA     HA   30  10.294   7.685  10.263  1.2440 -1.4584 -0.7080
    4ALA     CB   31  10.191   7.530  10.169 -0.2922 -0.3075 -0.0149
    4ALA    HB1   32  10.213   7.480  10.263  0.7889 -0.2454 -0.2088
    4ALA    HB2   33  10.090   7.507  10.136 -0.3323  0.1607 -0.2195
    4ALA    HB3   34  10.260   7.490  10.093 -0.0990  1.2767 -0.7226
    4ALA      C   35  10.211   7.762  10.068  0.3865  0.3576 -0.4513
    4ALA      O   36  10.104   7.804  10.026  0.0701  0.3762  0.1549
    5NME      N   37  10.327   7.773  10.000  0.0637 -0.6268 -0.5736
    5NME      H   38  10.401   7.709  10.026 -2.1810 -3.1329  0.2249
    5NME    CH3   39  10.336   7.845   9.874 -0.5520  0.5516 -0.3832
    5NME   HH31   40  10.264   7.800   9.806  0.4183 -2.2807  0.3469
    5NME   HH32   41  10.296   7.946   9.885  1.3646  1.1738  1.8085
    5NME   HH33   42  10.443   7.844   9.850 -0.2515  0.6897  0.8741
  20.91516  20.91516  20.91516
