Protein
   42
    1ACE   HH31    1   8.546  10.187  13.180  2.0446  1.4700  0.3262
    1ACE    CH3    2   8.599  10.121  13.111 -0.1156  0.1658 -0.1544
    1ACE   HH32    3   8.704  10.146  13.123 -0.1784  0.5777 -0.4044
    1ACE   HH33    4   8.568  10.128  13.007 -1.6986  0.4941  0.3099
    1ACE      C    5   8.575   9.982  13.161  0.4649  0.5351  0.8940
    1ACE      O    6   8.501   9.957  13.255 -0.0505 -0.0843 -0.2056
    2ALA      N    7   8.633   9.887  13.086 -0.1247  0.2082 -1.0039
    2ALA      H    8   8.691   9.918  13.009  2.6055 -0.7473  0.5314
    2ALA     CA    9   8.611   9.737  13.099 -0.1919 -0.8278 -0.4150
    2ALA     HA   10   8.548   9.724  13.187 -0.7586  0.3786 -0.6312
    2ALA     CB   11   8.542   9.694  12.970  0.3047 -0.0849  0.5099
    2ALA    HB1   12   8.608   9.709  12.885  0.1648 -1.6072  0.1026
    2ALA    HB2   13   8.508   9.591  12.973 -0.5006 -0.0014 -2.7745
    2ALA    HB3   14   8.455   9.761  12.968  0.9350  0.7182 -0.5143
    2ALA      C   15   8.739   9.661  13.126  0.3690  0.1540 -0.5984
    2ALA      O   16   8.727   9.539  13.117  0.1526  0.5513  0.3934
    3ALA      N   17   8.852   9.733  13.144 -0.0347  0.0474 -0.5639
    3ALA      H   18   8.829   9.831  13.155  2.4497  0.7076 -0.8121
    3ALA     CA   19   8.997   9.696  13.157  0.2654 -0.2065  0.5392
    3ALA     HA   20   9.033   9.706  13.259 -0.5542  1.1661  0.7188
    3ALA     CB   21   9.017   9.547  13.123 -0.3051  0.8551  0.1783
    3ALA    HB1   22   8.966   9.486  13.198 -1.0781  0.1864 -0.8506
    3ALA    HB2   23   8.976   9.524  13.024 -1.8716 -3.1064  1.5870
    3ALA    HB3   24   9.121   9.516  13.115 -0.6196 -0.0886 -0.4505
    3ALA      C   25   9.081   9.781  13.054  0.5636  0.7977 -0.6171
    3ALA      O   26   9.201   9.798  13.064  0.5013 -0.2592  0.4695
    4ALA      N   27   9.009   9.836  12.958 -0.2230 -0.0703  0.1330
    4ALA      H   28   8.912   9.807  12.951  0.2757 -2.2869  1.6009
    4ALA     CA   29   9.052   9.929  12.854  0.5621  0.0223 -0.8556
    4ALA     HA   30   9.148   9.968  12.885  0.6088 -1.1835  0.6132
    4ALA     CB   31   9.073   9.858  12.721  0.0493 -0.5650 -0.0894
    4ALA    HB1   32   9.181   9.842  12.715 -0.0030 -0.7533 -0.6461
    4ALA    HB2   33   9.019   9.763  12.712 -1.2311  0.1184  0.1441
    4ALA    HB3   34   9.050   9.927  12.639 -1.1711  0.5632  1.1593
    4ALA      C   35   8.939  10.033  12.838 -0.1880 -0.2534  1.0091
    4ALA      O   36   8.821  10.016  12.870 -0.1066 -0.5046 -0.2193
    5NME      N   37   8.982  10.153  12.787  0.0392 -0.1264 -0.4103
    5NME      H   38   9.082  10.163  12.787  0.4200 -3.1034 -1.3906
    5NME    CH3   39   8.893  10.263  12.768 -0.0277  0.0812 -0.6606
    5NME   HH31   40   8.844  10.282  12.863  0.9833  1.0258 -0.3033
    5NME   HH32   41   8.949  10.350  12.735  0.0400  0.1123 -0.4608
    5NME   HH33   42   8.823  10.235  12.689  0.6863  0.1122 -1.3220
  20.91516  20.91516  20.91516
