Protein
   32
    1ACE   HH31    1   8.246   6.486   7.544  0.8215  2.3307 -0.7831
    1ACE    CH3    2   8.291   6.444   7.454 -0.2493  0.5652 -0.5296
    1ACE   HH32    3   8.335   6.348   7.481  1.7416  1.8682  1.2630
    1ACE   HH33    4   8.373   6.512   7.432 -1.0008  2.1909  1.2974
    1ACE      C    5   8.208   6.452   7.333 -0.2495  0.4787  0.0293
    1ACE      O    6   8.094   6.493   7.351  0.0195  0.5659  0.1354
    2ALA      N    7   8.261   6.427   7.216 -0.3819 -0.0245  0.0321
    2ALA      H    8   8.348   6.375   7.218 -0.8061 -0.7197  0.7431
    2ALA     CA    9   8.206   6.453   7.086  0.8492  0.0403  0.1633
    2ALA     HA   10   8.156   6.550   7.091  1.3591  0.2410  1.6491
    2ALA     CB   11   8.329   6.475   6.993 -0.0849  0.7048 -0.2918
    2ALA    HB1   12   8.304   6.503   6.891 -4.0826 -2.8753 -0.5509
    2ALA    HB2   13   8.394   6.550   7.039  0.9766 -0.1242 -0.3946
    2ALA    HB3   14   8.385   6.382   6.986  2.2354  1.9715  0.2661
    2ALA      C   15   8.104   6.343   7.044  0.4606 -0.0090 -0.3929
    2ALA      O   16   8.125   6.278   6.943 -0.0450 -0.5160 -0.0752
    3ALA      N   17   7.996   6.322   7.116 -0.2692 -0.4235  0.5571
    3ALA      H   18   7.981   6.371   7.203 -2.9300 -0.2414  0.0810
    3ALA     CA   19   7.890   6.229   7.085  0.4866 -0.5046 -0.2708
    3ALA     HA   20   7.902   6.198   6.981  0.0637 -2.0877  0.1342
    3ALA     CB   21   7.895   6.110   7.177 -0.0063 -0.1698 -0.3936
    3ALA    HB1   22   7.989   6.058   7.162  1.7413  2.9420 -1.0480
    3ALA    HB2   23   7.877   6.148   7.278  0.0027 -1.6534  0.1817
    3ALA    HB3   24   7.810   6.047   7.152  0.1514 -1.0489  1.0889
    3ALA      C   25   7.745   6.287   7.085  0.5500  0.5697 -0.1325
    3ALA      O   26   7.650   6.209   7.112 -0.9555 -0.1972  0.3925
    4NME      N   27   7.734   6.420   7.057 -1.1257  0.5620 -0.0933
    4NME      H   28   7.819   6.474   7.053  0.1145 -1.3161 -0.9946
    4NME    CH3   29   7.607   6.494   7.050  0.4832 -0.5889  0.1030
    4NME   HH31   30   7.564   6.484   6.950 -2.1170  2.0940  0.8251
    4NME   HH32   31   7.531   6.463   7.121 -3.0004  2.3876 -1.9183
    4NME   HH33   32   7.628   6.602   7.052  0.7599 -0.4915 -2.7070
  20.99041  20.99041  20.99041
