Protein
   42
    1ACE   HH31    1  12.104  12.837   8.259 -0.0601  0.2402  0.3842
    1ACE    CH3    2  12.069  12.937   8.285 -0.3440  0.4415 -0.7383
    1ACE   HH32    3  11.962  12.936   8.307 -0.7064 -0.4952 -2.3169
    1ACE   HH33    4  12.092  13.009   8.207  2.3151 -0.8936 -1.3109
    1ACE      C    5  12.144  12.980   8.414 -0.7480  0.3190  0.6869
    1ACE      O    6  12.224  12.901   8.467 -0.2303 -0.0267  0.2198
    2ALA      N    7  12.110  13.103   8.462  0.0093 -0.1405  0.0551
    2ALA      H    8  12.040  13.153   8.409 -0.3028 -0.3154  0.3033
    2ALA     CA    9  12.184  13.185   8.561  0.1323  0.2628 -0.2425
    2ALA     HA   10  12.144  13.157   8.659 -2.2304 -1.2916 -1.5461
    2ALA     CB   11  12.334  13.178   8.544 -0.2015 -0.5245  0.0882
    2ALA    HB1   12  12.366  13.171   8.440 -0.1174  0.2172  0.0615
    2ALA    HB2   13  12.381  13.261   8.595 -2.2387  0.4789  0.4499
    2ALA    HB3   14  12.379  13.089   8.587  1.0877 -0.3731 -0.8747
    2ALA      C   15  12.142  13.333   8.529  0.2067 -0.0170  0.3855
    2ALA      O   16  12.121  13.375   8.412  0.0166  0.5136 -0.2356
    3ALA      N   17  12.143  13.429   8.623  0.0497  0.0338 -0.1641
    3ALA      H   18  12.142  13.522   8.583  1.4160  1.2091  2.3782
    3ALA     CA   19  12.140  13.423   8.772  1.2780  0.6755 -0.9484
    3ALA     HA   20  12.238  13.408   8.817  1.1992  1.0016 -0.6622
    3ALA     CB   21  12.082  13.548   8.828 -0.2224 -0.4718  0.0879
    3ALA    HB1   22  12.078  13.544   8.937  2.7819  0.9637  0.3469
    3ALA    HB2   23  12.152  13.630   8.809  0.9031 -0.7712  2.4849
    3ALA    HB3   24  11.986  13.567   8.780 -0.2936  0.5728  0.5941
    3ALA      C   25  12.043  13.312   8.827 -0.1886 -0.6091 -0.3013
    3ALA      O   26  12.079  13.248   8.924  0.0863  0.0941  0.4346
    4ALA      N   27  11.925  13.292   8.769  0.1549  0.3986 -0.0219
    4ALA      H   28  11.903  13.347   8.687  1.9710  0.8216 -0.2645
    4ALA     CA   29  11.838  13.180   8.797  0.6962 -0.2830 -0.3625
    4ALA     HA   30  11.890  13.119   8.871 -1.0858  0.7372  1.8497
    4ALA     CB   31  11.713  13.231   8.865  0.0355 -0.3370 -0.2378
    4ALA    HB1   32  11.638  13.278   8.801 -0.9475 -0.9647  0.4037
    4ALA    HB2   33  11.674  13.143   8.918 -0.2275  0.0903  0.2936
    4ALA    HB3   34  11.747  13.311   8.931  1.3556 -1.1469  0.0789
    4ALA      C   35  11.811  13.097   8.671  0.4142 -0.1442  0.0025
    4ALA      O   36  11.820  13.153   8.561  0.5267 -0.4039 -0.1991
    5NME      N   37  11.782  12.968   8.691  0.2531  0.5548  0.9021
    5NME      H   38  11.785  12.932   8.786  0.1987  0.5102  0.8871
    5NME    CH3   39  11.741  12.875   8.584  0.0179 -0.0813 -0.5856
    5NME   HH31   40  11.820  12.815   8.538  0.5144 -0.3313  0.5568
    5NME   HH32   41  11.656  12.821   8.627  0.2266 -0.4111 -0.5841
    5NME   HH33   42  11.708  12.943   8.506  0.4786  0.9799  0.1255
  20.91516  20.91516  20.91516
