Title
  129
    1AIB    CAY    1  21.354  21.189  22.305 -0.5147 -0.4783 -0.2648
    1AIB    HY1    2  21.284  21.275  22.305  0.1331  0.0533 -0.4263
    1AIB    HY2    3  21.436  21.214  22.376  0.6411  0.7591 -1.9298
    1AIB    HY3    4  21.295  21.095  22.312 -1.3066  0.1334  2.6407
    1AIB     CY    5  21.406  21.199  22.166  0.2782 -0.0437  0.7111
    1AIB     OY    6  21.329  21.171  22.069  0.1214  0.1128  0.0951
    1AIB      N    7  21.535  21.242  22.154 -0.0028  0.0202 -0.5124
    1AIB     HN    8  21.588  21.262  22.236  0.1240 -0.2156 -0.5372
    1AIB     CA    9  21.608  21.275  22.037  0.3406 -0.5094  0.2264
    1AIB    CB1   10  21.754  21.313  22.079  0.4772  0.3273  0.2047
    1AIB   HB11   11  21.799  21.366  21.992  0.8447 -1.1996 -0.5591
    1AIB   HB12   12  21.810  21.222  22.108  1.2007  0.8200  0.4072
    1AIB   HB13   13  21.746  21.381  22.167  0.9578  1.3418 -0.5154
    1AIB    CB2   14  21.552  21.415  21.987 -0.1363 -0.1089 -0.6274
    1AIB   HB21   15  21.612  21.468  21.910 -0.7702  1.3612 -0.1521
    1AIB   HB22   16  21.556  21.476  22.080  2.6111 -1.6198  0.3410
    1AIB   HB23   17  21.446  21.392  21.961  0.4553 -1.9898 -1.5181
    1AIB      C   18  21.608  21.179  21.921 -0.0906  0.5244  0.9719
    1AIB      O   19  21.581  21.223  21.804 -0.2038  0.1927  0.1604
    2AIB      N   20  21.626  21.050  21.942  0.3738  0.4084  0.3418
    2AIB     HN   21  21.635  21.024  22.038  1.1748  0.4174  0.2810
    2AIB     CA   22  21.624  20.941  21.846  0.0497  0.5158 -0.2267
    2AIB    CB1   23  21.627  20.799  21.916  0.7085 -0.3314  0.1437
    2AIB   HB11   24  21.550  20.810  21.996 -1.5585 -1.2993 -1.7396
    2AIB   HB12   25  21.724  20.790  21.969  0.6556  2.0894  0.7749
    2AIB   HB13   26  21.613  20.713  21.847  0.9746 -1.6041  1.6343
    2AIB    CB2   27  21.755  20.949  21.773 -0.0040  0.3125 -0.4687
    2AIB   HB21   28  21.757  20.898  21.674  1.2550 -1.1999  0.2734
    2AIB   HB22   29  21.836  20.897  21.829  0.2867 -0.3957 -1.4939
    2AIB   HB23   30  21.791  21.052  21.756 -1.1766  0.9764  0.9129
    2AIB      C   31  21.501  20.935  21.753 -0.1159 -0.3902 -0.0423
    2AIB      O   32  21.506  20.929  21.626  0.7137 -0.1671  0.2283
    3AIB      N   33  21.380  20.936  21.817  0.3174 -0.3247  0.0104
    3AIB     HN   34  21.375  20.948  21.916 -1.7152 -0.3434 -0.0563
    3AIB     CA   35  21.251  20.926  21.748  0.3311 -0.3209  0.1253
    3AIB    CB1   36  21.138  20.944  21.855 -0.0769  0.1331  0.6426
    3AIB   HB11   37  21.149  20.863  21.930 -0.5342 -2.0695 -1.5368
    3AIB   HB12   38  21.036  20.926  21.816 -0.3979  0.1446  1.4466
    3AIB   HB13   39  21.158  21.042  21.904 -1.3979 -0.2024  1.9271
    3AIB    CB2   40  21.228  20.797  21.677  0.2453  0.1348 -0.4368
    3AIB   HB21   41  21.234  20.710  21.746  0.3340  1.1309  0.8475
    3AIB   HB22   42  21.313  20.790  21.605  0.3800 -1.5644 -0.1464
    3AIB   HB23   43  21.131  20.793  21.623 -0.0974  1.6438  0.0282
    3AIB      C   44  21.245  21.043  21.650 -0.9621 -0.1434  0.8401
    3AIB      O   45  21.257  21.027  21.526  0.3500 -0.0817  0.1532
    4AIB      N   46  21.259  21.173  21.709 -0.6151 -0.2024 -0.7408
    4AIB     HN   47  21.263  21.185  21.807 -2.4735  0.9486 -0.7588
    4AIB     CA   48  21.238  21.303  21.647  0.3922  1.2674  0.3670
    4AIB    CB1   49  21.251  21.413  21.754 -0.8733  0.2912  0.4631
    4AIB   HB11   50  21.190  21.383  21.842  0.7779 -0.9675  1.2415
    4AIB   HB12   51  21.222  21.510  21.709  0.2558  1.1612  1.5150
    4AIB   HB13   52  21.356  21.431  21.787 -0.5092  0.0805 -0.5657
    4AIB    CB2   53  21.094  21.293  21.574 -0.4808 -0.9783 -0.7193
    4AIB   HB21   54  21.058  21.398  21.558  1.5328 -0.2058 -0.3593
    4AIB   HB22   55  21.026  21.244  21.647 -1.4504  0.9269 -0.2775
    4AIB   HB23   56  21.101  21.243  21.475  1.0377  0.9260 -1.6488
    4AIB      C   57  21.341  21.322  21.531  0.5007 -0.2929 -0.3463
    4AIB      O   58  21.310  21.356  21.423 -0.1215  0.0415  0.2723
    5AIB      N   59  21.471  21.282  21.549  0.0062  0.0385  0.0876
    5AIB     HN   60  21.499  21.257  21.641 -1.1022  0.1711  0.4730
    5AIB     CA   61  21.578  21.286  21.454  0.0450  0.2412  0.6078
    5AIB    CB1   62  21.714  21.229  21.521  0.8666  0.2758 -0.9778
    5AIB   HB11   63  21.695  21.132  21.572  0.5176  1.4934  1.3256
    5AIB   HB12   64  21.742  21.283  21.614  2.5781  0.7266 -1.7190
    5AIB   HB13   65  21.803  21.211  21.456 -0.4824  1.5537 -3.2682
    5AIB    CB2   66  21.595  21.432  21.405 -0.4787 -0.7113  0.1582
    5AIB   HB21   67  21.588  21.502  21.491 -3.0473  0.4292 -0.9053
    5AIB   HB22   68  21.518  21.459  21.330  0.5679 -0.6971 -0.9550
    5AIB   HB23   69  21.694  21.450  21.358 -0.6480  0.7182  0.3138
    5AIB      C   70  21.545  21.197  21.329  0.1614 -0.0808 -0.0219
    5AIB      O   71  21.553  21.244  21.213  0.3795  0.5140  0.3565
    6AIB      N   72  21.493  21.071  21.354 -0.4575  0.6285 -0.3248
    6AIB     HN   73  21.461  21.041  21.443 -0.2272 -1.0276 -0.7732
    6AIB     CA   74  21.492  20.962  21.258  0.0490 -0.7037 -0.3549
    6AIB    CB1   75  21.435  20.839  21.334 -0.2875 -0.0767 -0.7843
    6AIB   HB11   76  21.425  20.746  21.273  0.7370  0.0803 -1.2216
    6AIB   HB12   77  21.335  20.848  21.380 -0.9946 -1.3389 -2.0162
    6AIB   HB13   78  21.500  20.826  21.423 -3.6439 -0.5818  1.7414
    6AIB    CB2   79  21.630  20.922  21.203 -0.7342 -0.7499  0.1451
    6AIB   HB21   80  21.627  20.842  21.126  0.8017 -0.8286  0.1470
    6AIB   HB22   81  21.690  20.888  21.290  0.2953 -1.4774 -0.8210
    6AIB   HB23   82  21.685  21.008  21.158 -1.6665 -1.6765 -3.0559
    6AIB      C   83  21.381  20.994  21.153  0.7974 -0.1706 -0.7022
    6AIB      O   84  21.398  20.961  21.038 -0.1693  0.0384 -0.2283
    7AIB      N   85  21.273  21.060  21.207 -0.0317 -0.1845 -0.6550
    7AIB     HN   86  21.263  21.068  21.306 -1.2388 -0.0581 -0.7679
    7AIB     CA   87  21.156  21.095  21.132 -0.3147  0.3763 -0.1847
    7AIB    CB1   88  21.057  21.167  21.216  0.6240 -0.5289  0.6423
    7AIB   HB11   89  20.962  21.176  21.160  1.2452 -1.7312 -0.6369
    7AIB   HB12   90  21.092  21.266  21.251  1.5231 -0.3705 -0.6893
    7AIB   HB13   91  21.040  21.106  21.308  0.1914 -0.0118  0.9099
    7AIB    CB2   92  21.090  20.964  21.076  0.2785 -0.0457  0.4497
    7AIB   HB21   93  21.157  20.909  21.007  1.8643  1.0365  1.0838
    7AIB   HB22   94  20.998  21.006  21.028  1.5104  1.1132 -1.0109
    7AIB   HB23   95  21.056  20.905  21.164  0.1096  2.0555  1.8673
    7AIB      C   96  21.196  21.199  21.017 -0.4272 -0.5588  0.7767
    7AIB      O   97  21.149  21.191  20.906 -0.2263  0.0948  0.3129
    8AIB      N   98  21.292  21.290  21.047  0.3140 -0.3112 -0.2133
    8AIB     HN   99  21.340  21.289  21.134 -0.5460  0.0549  0.2757
    8AIB     CA  100  21.328  21.412  20.970  0.5378  0.5991  0.5455
    8AIB    CB1  101  21.427  21.491  21.057 -0.1689 -0.4551  0.2845
    8AIB   HB11  102  21.513  21.425  21.080 -0.3508 -0.9434 -0.4265
    8AIB   HB12  103  21.376  21.531  21.148  2.0732  1.5704  0.7538
    8AIB   HB13  104  21.460  21.581  21.001  0.7799 -0.5432  0.6779
    8AIB    CB2  105  21.202  21.495  20.940  0.5570  0.3672  0.2241
    8AIB   HB21  106  21.143  21.508  21.034 -0.3948  0.8493 -0.4217
    8AIB   HB22  107  21.149  21.453  20.852  0.0437  2.3715 -0.4907
    8AIB   HB23  108  21.238  21.594  20.905  0.7473  0.1833 -0.0890
    8AIB      C  109  21.410  21.370  20.846 -0.8612  0.1478 -0.8981
    8AIB      O  110  21.420  21.441  20.744 -0.3016 -0.2834 -0.4608
    9AIB      N  111  21.477  21.247  20.855 -0.1085  0.2246  0.7906
    9AIB     HN  112  21.462  21.191  20.936  0.1998  0.4487  1.0047
    9AIB     CA  113  21.574  21.199  20.762 -0.0913  0.8081 -0.4615
    9AIB    CB1  114  21.647  21.079  20.828  0.0584  0.5816  0.1151
    9AIB   HB11  115  21.567  21.012  20.867 -0.7073  1.4522  0.0763
    9AIB   HB12  116  21.703  21.118  20.915 -0.9263 -0.4373  1.2416
    9AIB   HB13  117  21.714  21.030  20.754  0.2731  0.1391  0.5974
    9AIB    CB2  118  21.682  21.299  20.729 -0.3299  0.4232 -0.1035
    9AIB   HB21  119  21.639  21.363  20.649  1.2194  0.2032 -1.1408
    9AIB   HB22  120  21.777  21.256  20.693  0.0142 -0.7194  1.9647
    9AIB   HB23  121  21.702  21.362  20.819 -0.8282 -0.4414  0.6376
    9AIB      C  122  21.502  21.137  20.638  0.1057  0.2237 -0.2702
    9AIB      O  123  21.558  21.109  20.534 -0.6791 -0.2878 -0.1302
    9AIB     NT  124  21.368  21.105  20.652  0.0519 -0.4315 -0.1709
    9AIB    HNT  125  21.316  21.137  20.731 -0.8108  1.7065 -1.5177
    9AIB    CAT  126  21.299  21.055  20.538  0.4704  0.4142 -1.3888
    9AIB    HT1  127  21.340  20.961  20.495 -1.2045 -1.0249  0.0144
    9AIB    HT2  128  21.292  21.131  20.457 -0.0173  1.0587 -0.7590
    9AIB    HT3  129  21.198  21.031  20.579  0.7045 -0.5704 -1.3723
  42.09246  42.09246  42.09246
