Protein
   42
    1ACE   HH31    1   8.365  11.694   9.987 -0.2319 -1.0897  1.2064
    1ACE    CH3    2   8.473  11.710   9.998 -0.1130 -0.4962 -0.3839
    1ACE   HH32    3   8.526  11.623  10.037  0.7384 -0.1338 -0.7089
    1ACE   HH33    4   8.486  11.788  10.074 -0.7005 -1.5817  0.8821
    1ACE      C    5   8.549  11.741   9.872 -0.6051 -0.1148 -1.1795
    1ACE      O    6   8.583  11.858   9.856 -0.0845 -0.3144 -0.5465
    2ALA      N    7   8.561  11.643   9.784  0.3564  0.3299 -0.4271
    2ALA      H    8   8.519  11.554   9.809 -0.9531  1.2437  0.7418
    2ALA     CA    9   8.607  11.651   9.638 -0.1273  0.2665  0.6076
    2ALA     HA   10   8.673  11.566   9.619 -1.6952 -0.7916 -0.2734
    2ALA     CB   11   8.479  11.631   9.550  0.3962 -0.0771 -0.3585
    2ALA    HB1   12   8.504  11.628   9.444 -2.0936  0.2427 -0.9992
    2ALA    HB2   13   8.423  11.545   9.587  1.3102  0.0569  1.4668
    2ALA    HB3   14   8.423  11.723   9.564 -2.1924 -1.7580  0.9730
    2ALA      C   15   8.682  11.784   9.598 -0.0129  0.2444 -0.5480
    2ALA      O   16   8.636  11.865   9.520 -0.2677 -0.2076 -0.3007
    3ALA      N   17   8.806  11.806   9.642  0.3236  0.1494 -0.0293
    3ALA      H   18   8.839  11.891   9.598 -1.6532  0.7077 -0.5216
    3ALA     CA   19   8.897  11.738   9.732 -0.0738 -0.1137 -0.2440
    3ALA     HA   20   8.848  11.654   9.781  2.3249 -0.2777  2.1673
    3ALA     CB   21   9.001  11.681   9.640  0.4236  0.1391  0.1573
    3ALA    HB1   22   9.068  11.759   9.605  0.9083  0.3288  1.4511
    3ALA    HB2   23   9.051  11.602   9.696 -0.0674 -0.5089 -0.3106
    3ALA    HB3   24   8.945  11.627   9.563  1.5831 -4.1275  2.0042
    3ALA      C   25   8.947  11.840   9.847 -0.0895 -0.5458  0.5043
    3ALA      O   26   9.065  11.848   9.880 -0.5259 -0.3531  0.3242
    4ALA      N   27   8.860  11.916   9.915  0.0016  0.7054 -0.3143
    4ALA      H   28   8.767  11.918   9.875  0.1513 -2.6936 -1.1414
    4ALA     CA   29   8.879  11.986  10.046 -0.3873  0.2933 -0.0540
    4ALA     HA   30   8.880  12.094  10.040  0.2309  0.2805 -0.2773
    4ALA     CB   31   8.751  11.956  10.123  0.1087 -0.2891 -0.0172
    4ALA    HB1   32   8.665  12.004  10.075  2.0959  1.6985 -1.8271
    4ALA    HB2   33   8.741  11.848  10.132  1.1054 -0.5446 -1.6632
    4ALA    HB3   34   8.751  11.994  10.225 -0.8400 -1.0389  0.2945
    4ALA      C   35   9.000  11.937  10.130 -0.2600  0.1450  0.1335
    4ALA      O   36   8.987  11.835  10.198 -0.6770 -0.5731  0.2091
    5NME      N   37   9.099  12.026  10.146 -0.2535 -0.5872 -0.1737
    5NME      H   38   9.102  12.105  10.083  0.4446 -0.8261 -0.4423
    5NME    CH3   39   9.217  12.016  10.235  0.4069  0.6416  1.3455
    5NME   HH31   40   9.193  12.018  10.341  0.4207 -0.0321  1.3667
    5NME   HH32   41   9.278  11.932  10.202 -0.3528  1.3474 -2.2182
    5NME   HH33   42   9.273  12.106  10.208 -0.4494  0.7320 -0.2959
  20.91516  20.91516  20.91516
