Title
  129
    1AIB    CAY    1  20.636  22.244  22.128  0.2697  0.6614 -0.3007
    1AIB    HY1    2  20.560  22.279  22.201  0.0674  2.0578 -1.1448
    1AIB    HY2    3  20.599  22.260  22.024  0.7642  0.6088 -0.4881
    1AIB    HY3    4  20.725  22.309  22.145 -0.5189  1.6781  0.0722
    1AIB     CY    5  20.679  22.099  22.140  0.4258 -0.1965 -0.5922
    1AIB     OY    6  20.661  22.046  22.247 -0.8500  0.3592 -0.8458
    1AIB      N    7  20.738  22.046  22.036 -0.4744  0.4892  0.2220
    1AIB     HN    8  20.773  22.106  21.965  2.4735 -1.1847  0.1217
    1AIB     CA    9  20.769  21.906  22.021  0.2901 -0.8866  0.0388
    1AIB    CB1   10  20.879  21.904  21.916  0.1518 -0.2498 -0.4686
    1AIB   HB11   11  20.953  21.987  21.924  1.0821 -0.9848 -0.9564
    1AIB   HB12   12  20.841  21.942  21.819  0.3998  0.7378 -0.1999
    1AIB   HB13   13  20.924  21.803  21.905  3.4329  0.8280  1.4895
    1AIB    CB2   14  20.640  21.837  21.976 -0.4931  0.3400 -0.0850
    1AIB   HB21   15  20.659  21.734  21.939 -0.3796  0.3271 -0.0033
    1AIB   HB22   16  20.595  21.889  21.889 -1.0228 -0.0793 -0.0719
    1AIB   HB23   17  20.568  21.848  22.060  0.0444  2.0045  0.2022
    1AIB      C   18  20.838  21.832  22.141 -0.5537 -0.1353  0.4152
    1AIB      O   19  20.816  21.716  22.177  0.5541 -0.5225 -0.6731
    2AIB      N   20  20.925  21.908  22.211 -0.5068 -1.0872 -0.3452
    2AIB     HN   21  20.953  21.999  22.181 -2.3784 -0.6321 -0.8224
    2AIB     CA   22  20.996  21.862  22.335  0.6081 -0.9527  0.1309
    2AIB    CB1   23  21.049  22.002  22.384 -0.8232  0.0942 -0.8658
    2AIB   HB11   24  21.124  21.995  22.466 -1.1076  2.5521 -0.3117
    2AIB   HB12   25  20.968  22.070  22.418 -1.4690 -1.0395 -0.0837
    2AIB   HB13   26  21.095  22.057  22.299  1.7985  1.3746  1.2382
    2AIB    CB2   27  21.112  21.780  22.289 -0.2243  0.1554 -1.3030
    2AIB   HB21   28  21.179  21.777  22.377 -1.0866  0.5384 -0.6093
    2AIB   HB22   29  21.171  21.817  22.203  1.9579 -1.3815 -0.5430
    2AIB   HB23   30  21.088  21.678  22.252  0.4626 -0.8250  0.8183
    2AIB      C   31  20.914  21.789  22.448 -0.0577 -0.1500  0.6395
    2AIB      O   32  20.941  21.673  22.489  0.3483  0.1628 -0.0954
    3AIB      N   33  20.806  21.860  22.492  0.0740  0.2178 -0.5965
    3AIB     HN   34  20.791  21.953  22.460 -0.2070  0.3879  0.0114
    3AIB     CA   35  20.691  21.821  22.567 -0.2376 -0.1493 -0.0417
    3AIB    CB1   36  20.563  21.910  22.540  0.8021  0.0335 -0.0336
    3AIB   HB11   37  20.590  22.015  22.561  1.2312  0.3327 -1.9300
    3AIB   HB12   38  20.495  21.883  22.624  0.3276  2.8373  0.5677
    3AIB   HB13   39  20.525  21.896  22.436  2.4489 -0.4298 -0.5984
    3AIB    CB2   40  20.727  21.833  22.715  0.3169 -0.5117  0.2837
    3AIB   HB21   41  20.820  21.772  22.721  0.7731  0.2682  1.4313
    3AIB   HB22   42  20.647  21.781  22.772  0.0987  0.8852  1.2864
    3AIB   HB23   43  20.748  21.931  22.762 -0.8242 -0.8517  1.5726
    3AIB      C   44  20.647  21.672  22.532 -0.7316 -0.4922  0.2327
    3AIB      O   45  20.649  21.578  22.619 -0.6666  0.1338  0.3962
    4AIB      N   46  20.600  21.654  22.404 -0.0151 -0.4153 -0.2007
    4AIB     HN   47  20.621  21.731  22.345  0.1048  0.6688  1.1963
    4AIB     CA   48  20.530  21.543  22.340 -0.7053  0.1347  0.6564
    4AIB    CB1   49  20.485  21.582  22.195  0.2717 -0.1154 -0.3089
    4AIB   HB11   50  20.410  21.663  22.195 -0.2661 -0.5764 -2.3940
    4AIB   HB12   51  20.434  21.491  22.157  0.5055 -1.9652  3.3310
    4AIB   HB13   52  20.566  21.607  22.124  1.0107 -2.5444 -0.4164
    4AIB    CB2   53  20.401  21.518  22.421  0.1537  0.5433 -0.8026
    4AIB   HB21   54  20.345  21.614  22.425  0.0566  0.4483  0.6748
    4AIB   HB22   55  20.431  21.489  22.524  0.9098  0.9250 -0.9123
    4AIB   HB23   56  20.349  21.430  22.379  1.6890 -0.7651 -0.0452
    4AIB      C   57  20.626  21.419  22.349  0.4777  0.6293  0.4804
    4AIB      O   58  20.570  21.309  22.365 -0.0712 -0.1369 -0.8373
    5AIB      N   59  20.756  21.431  22.318 -0.0102 -0.0248 -0.3752
    5AIB     HN   60  20.784  21.520  22.283 -0.0760 -0.1769 -0.8304
    5AIB     CA   61  20.863  21.333  22.321 -0.0146 -0.7482  0.1399
    5AIB    CB1   62  20.995  21.402  22.284 -0.0665  0.3304  0.3880
    5AIB   HB11   63  20.995  21.441  22.180 -1.1607  0.4490  0.4234
    5AIB   HB12   64  21.080  21.333  22.302 -0.6140 -0.1895  1.0438
    5AIB   HB13   65  21.016  21.494  22.342 -0.1378  1.5419 -1.4273
    5AIB    CB2   66  20.823  21.213  22.232 -0.1188  0.0498  0.2441
    5AIB   HB21   67  20.758  21.250  22.150 -0.9334  0.5585  1.0985
    5AIB   HB22   68  20.746  21.152  22.284  1.6941 -2.1084  0.5731
    5AIB   HB23   69  20.905  21.139  22.215 -2.3891 -2.4152 -0.7808
    5AIB      C   70  20.883  21.287  22.464 -0.5346 -0.0228 -0.0777
    5AIB      O   71  20.913  21.167  22.489  0.0227 -0.5403 -0.3571
    6AIB      N   72  20.878  21.381  22.563  1.2535 -0.1083  0.2857
    6AIB     HN   73  20.842  21.470  22.536  0.4307 -0.0202  1.5916
    6AIB     CA   74  20.917  21.363  22.705 -0.0941  1.0774  0.2297
    6AIB    CB1   75  20.914  21.500  22.781 -0.4985 -0.1049  1.1851
    6AIB   HB11   76  20.970  21.579  22.726 -1.8864 -0.1700 -0.3730
    6AIB   HB12   77  20.966  21.495  22.879  1.5565  0.9030  0.2296
    6AIB   HB13   78  20.809  21.535  22.791 -0.8026 -0.5272 -0.2512
    6AIB    CB2   79  21.063  21.302  22.724  0.2515  0.1817  0.8696
    6AIB   HB21   80  21.052  21.192  22.718 -1.2264  0.3618 -0.4478
    6AIB   HB22   81  21.092  21.320  22.830  1.3760  1.2317  0.4089
    6AIB   HB23   82  21.144  21.346  22.662  3.1565 -1.2333  3.4067
    6AIB      C   83  20.808  21.269  22.779 -0.2980  0.8058 -0.0982
    6AIB      O   84  20.839  21.186  22.859 -0.4487  0.2817 -0.0639
    7AIB      N   85  20.676  21.283  22.757 -0.4229 -0.0770  0.5696
    7AIB     HN   86  20.658  21.331  22.672  1.0975 -1.2339 -0.4490
    7AIB     CA   87  20.564  21.213  22.809 -0.0011  0.2175  0.4618
    7AIB    CB1   88  20.441  21.293  22.772 -0.6433  0.0533  0.0971
    7AIB   HB11   89  20.447  21.381  22.840  3.1254 -1.0666  1.4211
    7AIB   HB12   90  20.346  21.239  22.796 -2.5207  2.7604 -0.7998
    7AIB   HB13   91  20.430  21.328  22.667  0.7117  1.4600  0.3916
    7AIB    CB2   92  20.572  21.216  22.964 -0.4607  0.2609  0.1916
    7AIB   HB21   93  20.594  21.317  23.003 -3.3446  1.5112 -1.1921
    7AIB   HB22   94  20.649  21.142  22.996  0.4481  1.0606 -0.1223
    7AIB   HB23   95  20.481  21.177  23.016  0.3299 -0.3522  1.1424
    7AIB      C   96  20.565  21.067  22.755  0.5034  0.3066 -0.0699
    7AIB      O   97  20.536  20.973  22.827  0.0013  0.3716  0.2591
    8AIB      N   98  20.589  21.045  22.629  0.9095  0.4250 -0.1017
    8AIB     HN   99  20.597  21.127  22.573 -0.4866  2.1834  2.0643
    8AIB     CA  100  20.599  20.914  22.567  0.0668  0.2419 -0.3521
    8AIB    CB1  101  20.658  20.928  22.426  0.2076 -0.7445 -0.0458
    8AIB   HB11  102  20.768  20.944  22.432  0.1054 -0.3930  1.2187
    8AIB   HB12  103  20.603  21.006  22.369  0.4466 -0.5322  0.0188
    8AIB   HB13  104  20.633  20.831  22.379 -3.3767  0.6539 -1.3761
    8AIB    CB2  105  20.457  20.855  22.553  0.1987  0.1626  0.4646
    8AIB   HB21  106  20.411  20.855  22.653  0.4425 -0.1270  0.5719
    8AIB   HB22  107  20.470  20.752  22.513  3.3325  0.9355 -0.8519
    8AIB   HB23  108  20.387  20.916  22.492 -0.1133 -0.0458  0.6163
    8AIB      C  109  20.699  20.815  22.643  0.8529  0.3468  0.0458
    8AIB      O  110  20.670  20.693  22.658  0.0426  0.1889 -0.2933
    9AIB      N  111  20.811  20.865  22.693 -0.6314 -0.0874 -0.4595
    9AIB     HN  112  20.827  20.964  22.697 -0.3802 -0.0012 -2.5424
    9AIB     CA  113  20.923  20.794  22.754 -0.2591 -0.4752 -0.5642
    9AIB    CB1  114  21.019  20.908  22.787 -0.1276 -0.3069 -0.1063
    9AIB   HB11  115  21.101  20.883  22.858 -0.6330  1.5887  1.2061
    9AIB   HB12  116  20.965  20.988  22.842 -1.5462  0.0510 -1.9445
    9AIB   HB13  117  21.065  20.952  22.697 -2.1594  0.3738 -0.8695
    9AIB    CB2  118  20.985  20.698  22.651 -0.0999  0.3863  0.5360
    9AIB   HB21  119  21.027  20.763  22.570  0.9614 -0.4295  0.4163
    9AIB   HB22  120  20.913  20.621  22.614 -0.0062  1.5042 -2.2785
    9AIB   HB23  121  21.069  20.635  22.687 -0.7786 -0.9621 -0.1475
    9AIB      C  122  20.882  20.724  22.890 -0.7768 -0.6594  0.1422
    9AIB      O  123  20.956  20.637  22.943  0.3105 -0.4349 -0.5032
    9AIB     NT  124  20.768  20.762  22.944 -0.2160 -0.0245  0.0497
    9AIB    HNT  125  20.714  20.831  22.897 -0.2264  1.2610  1.8479
    9AIB    CAT  126  20.723  20.712  23.072  0.0903 -0.4338 -0.6354
    9AIB    HT1  127  20.800  20.712  23.151 -1.4638  0.7491  0.9489
    9AIB    HT2  128  20.696  20.606  23.054  1.5646 -1.1436  1.1337
    9AIB    HT3  129  20.636  20.768  23.113  1.8332  0.7432  1.6776
  42.09246  42.09246  42.09246
