Protein
   42
    1ACE   HH31    1  16.030   9.699   3.932 -1.2424 -0.5438  0.3007
    1ACE    CH3    2  16.056   9.595   3.914  0.4195 -0.0686 -0.2834
    1ACE   HH32    3  16.019   9.552   3.821 -3.4181 -0.8652  1.4070
    1ACE   HH33    4  15.996   9.540   3.988 -0.5218  0.8760 -0.3234
    1ACE      C    5  16.205   9.559   3.918  0.4782 -0.1660 -0.0571
    1ACE      O    6  16.289   9.645   3.899 -0.0446 -0.3835 -0.9932
    2ALA      N    7  16.237   9.432   3.937  0.0843 -0.2266 -0.4151
    2ALA      H    8  16.161   9.367   3.946 -2.3021  2.4216 -0.1784
    2ALA     CA    9  16.367   9.376   3.982 -0.1190  0.3159  0.2704
    2ALA     HA   10  16.444   9.410   3.913 -1.7374 -0.6643 -2.1543
    2ALA     CB   11  16.408   9.422   4.115  0.6055 -0.4523 -0.2953
    2ALA    HB1   12  16.332   9.393   4.187  1.7226 -1.1184  0.6415
    2ALA    HB2   13  16.500   9.371   4.141  0.9714  0.2835 -0.0993
    2ALA    HB3   14  16.426   9.529   4.117  0.9622 -0.5142 -0.3251
    2ALA      C   15  16.370   9.215   3.976  0.3576 -1.0597  0.6060
    2ALA      O   16  16.265   9.154   3.995 -0.0835  0.7267  0.2519
    3ALA      N   17  16.480   9.146   3.947 -0.1270  0.4401 -0.1349
    3ALA      H   18  16.473   9.047   3.964 -0.8114  0.5824  0.4633
    3ALA     CA   19  16.607   9.196   3.888 -0.1807 -0.0235  0.1732
    3ALA     HA   20  16.650   9.274   3.949  1.9008 -1.7294  1.0293
    3ALA     CB   21  16.708   9.075   3.901 -0.0888  0.0425  0.0502
    3ALA    HB1   22  16.669   9.007   3.825 -0.2729  0.2415 -0.0368
    3ALA    HB2   23  16.812   9.099   3.882  0.9314 -2.9563  1.0588
    3ALA    HB3   24  16.702   9.040   4.004 -1.2449  0.1020  0.0095
    3ALA      C   25  16.596   9.260   3.746  0.0312 -0.5679 -0.7065
    3ALA      O   26  16.697   9.293   3.689  0.6276 -0.3669  0.4483
    4ALA      N   27  16.472   9.274   3.690  0.0400 -0.0620 -0.0579
    4ALA      H   28  16.389   9.237   3.733 -1.1182 -1.0543 -2.9189
    4ALA     CA   29  16.445   9.342   3.561 -0.2094  0.7100  0.2665
    4ALA     HA   30  16.516   9.424   3.549  0.4097 -0.0198 -1.2716
    4ALA     CB   31  16.462   9.238   3.445 -0.1134 -0.5627 -0.3439
    4ALA    HB1   32  16.561   9.194   3.440 -0.9766 -2.5463 -0.9203
    4ALA    HB2   33  16.395   9.154   3.465  1.6047 -2.1496 -0.9720
    4ALA    HB3   34  16.431   9.272   3.346 -1.0286  0.7511  0.3694
    4ALA      C   35  16.309   9.416   3.557  0.4260  0.5001 -0.2540
    4ALA      O   36  16.213   9.378   3.624  0.2259 -0.3603  0.7367
    5NME      N   37  16.304   9.527   3.485 -0.3483  0.2946  0.2981
    5NME      H   38  16.390   9.560   3.445 -0.8145  1.1902 -0.0030
    5NME    CH3   39  16.192   9.624   3.469 -0.4049 -0.0822 -0.2338
    5NME   HH31   40  16.149   9.655   3.564 -0.7818 -2.2603  0.3655
    5NME   HH32   41  16.228   9.717   3.427  0.7532 -0.3074  0.2266
    5NME   HH33   42  16.109   9.581   3.411 -0.9297  0.3572  0.1803
  20.91516  20.91516  20.91516
