Protein
   22
    1ACE   HH31    1   5.238  10.079   0.982  0.0013 -0.5124  1.5885
    1ACE    CH3    2   5.132  10.075   1.008 -0.3058  0.1408  0.4912
    1ACE   HH32    3   5.079  10.144   0.942 -0.2876  1.0591  1.4019
    1ACE   HH33    4   5.122  10.111   1.111  3.4235 -0.1665  1.0999
    1ACE      C    5   5.080   9.936   0.999 -0.0629  0.4146 -0.0089
    1ACE      O    6   5.085   9.853   1.090  0.2789 -0.1550 -0.4610
    2ALA      N    7   5.032   9.913   0.878  0.0968 -1.3306  0.2716
    2ALA      H    8   5.053   9.978   0.804 -0.2764 -0.9356  0.5079
    2ALA     CA    9   4.960   9.799   0.823  0.0206 -1.1386  0.0687
    2ALA     HA   10   4.954   9.813   0.715  2.7718 -2.3326 -0.3061
    2ALA     CB   11   5.046   9.675   0.831 -0.1149  0.6640  0.0572
    2ALA    HB1   12   5.135   9.681   0.769 -1.2626  0.3266 -1.7165
    2ALA    HB2   13   5.082   9.653   0.931  1.2758 -0.8735 -0.7505
    2ALA    HB3   14   4.999   9.589   0.784  0.0273  1.6477 -1.9564
    2ALA      C   15   4.817   9.794   0.881 -0.4655 -0.1854 -0.2551
    2ALA      O   16   4.767   9.890   0.940 -0.5799 -0.3359  0.5259
    3NME      N   17   4.747   9.680   0.861  0.4944 -0.2144 -0.5006
    3NME      H   18   4.791   9.604   0.811  2.1834  0.9527 -0.8953
    3NME    CH3   19   4.611   9.659   0.929  0.0493 -1.2342 -0.8174
    3NME   HH31   20   4.529   9.691   0.864 -0.0907 -2.9888 -1.5661
    3NME   HH32   21   4.583   9.557   0.954 -1.4037 -0.5392  0.5048
    3NME   HH33   22   4.614   9.712   1.024  0.7038 -0.8348 -1.0538
  10.72160  10.72160  10.72160
