Protein
   42
    1ACE   HH31    1   2.773  12.831  11.142  2.6048  0.4977  1.2642
    1ACE    CH3    2   2.796  12.726  11.123 -0.2098  0.1086 -0.6820
    1ACE   HH32    3   2.755  12.671  11.207 -0.1911  0.5582 -0.3804
    1ACE   HH33    4   2.905  12.722  11.110 -0.2785 -0.6644 -1.1284
    1ACE      C    5   2.752  12.681  10.986  0.6491 -0.3487 -0.3800
    1ACE      O    6   2.775  12.567  10.955  0.2046  0.2047  0.4890
    2ALA      N    7   2.695  12.777  10.913 -1.2188 -0.3216 -0.1094
    2ALA      H    8   2.673  12.860  10.966 -0.7920 -0.7020  0.6847
    2ALA     CA    9   2.677  12.770  10.766 -0.0161 -0.4347 -0.0551
    2ALA     HA   10   2.637  12.862  10.725 -1.2161 -0.3713  1.2109
    2ALA     CB   11   2.819  12.759  10.714 -0.2289  0.3011  0.8009
    2ALA    HB1   12   2.827  12.778  10.607  0.7727 -1.3263  0.5528
    2ALA    HB2   13   2.875  12.834  10.770  1.0931  1.2837 -1.7157
    2ALA    HB3   14   2.871  12.667  10.740 -0.2704  0.1907  0.4924
    2ALA      C   15   2.579  12.656  10.717 -0.0970 -0.1910  0.3074
    2ALA      O   16   2.590  12.623  10.600 -0.6896  0.7083  0.4613
    3ALA      N   17   2.508  12.591  10.819 -0.7366  0.3851 -0.2190
    3ALA      H   18   2.526  12.620  10.914  1.3221  1.0921 -0.7499
    3ALA     CA   19   2.418  12.473  10.808 -0.0249 -0.1870  0.2691
    3ALA     HA   20   2.394  12.452  10.912 -0.3503  0.9129  0.4301
    3ALA     CB   21   2.291  12.519  10.744 -0.2331  0.2033  0.4929
    3ALA    HB1   22   2.261  12.617  10.780 -1.8113 -0.2954  0.6388
    3ALA    HB2   23   2.311  12.527  10.637  1.3008  0.7081  0.7974
    3ALA    HB3   24   2.207  12.451  10.763 -0.0477 -0.4065 -0.7761
    3ALA      C   25   2.483  12.348  10.745 -0.3667  0.5123 -0.2131
    3ALA      O   26   2.424  12.240  10.757 -0.1237 -0.2308  0.0821
    4ALA      N   27   2.611  12.357  10.708  0.1483  0.4253 -0.5388
    4ALA      H   28   2.655  12.448  10.705 -0.8995  1.0352  1.2046
    4ALA     CA   29   2.695  12.243  10.684 -0.7746  0.7184  0.1055
    4ALA     HA   30   2.639  12.156  10.652 -1.9307  1.4010  0.2013
    4ALA     CB   31   2.793  12.286  10.570  0.0707 -0.8640 -0.3200
    4ALA    HB1   32   2.860  12.364  10.607  0.0032 -0.3337 -1.2504
    4ALA    HB2   33   2.861  12.202  10.555  1.3750  0.0938 -0.0306
    4ALA    HB3   34   2.738  12.311  10.479 -1.3273 -1.9321  0.2002
    4ALA      C   35   2.785  12.190  10.803  0.9004 -0.6344 -0.2299
    4ALA      O   36   2.848  12.083  10.788  0.8118  0.2797 -0.4346
    5NME      N   37   2.793  12.269  10.909 -0.4995  0.2192  0.6379
    5NME      H   38   2.750  12.360  10.902 -1.8561 -0.5512 -2.5638
    5NME    CH3   39   2.885  12.229  11.016 -0.0483  0.1598 -0.2595
    5NME   HH31   40   2.843  12.261  11.111  0.4009  0.7334 -0.2393
    5NME   HH32   41   2.897  12.121  11.025 -2.5222 -0.0694  0.8648
    5NME   HH33   42   2.985  12.270  11.000  0.4054  0.2455  2.3996
  20.91516  20.91516  20.91516
