Protein
   32
    1ACE   HH31    1   9.486   7.069  15.355  1.4292  2.0756  2.0751
    1ACE    CH3    2   9.501   6.990  15.428 -0.2235  0.1804  0.4605
    1ACE   HH32    3   9.609   6.992  15.445 -0.4529 -0.1068  2.1132
    1ACE   HH33    4   9.466   6.888  15.410 -1.0523  0.4161  0.6937
    1ACE      C    5   9.437   7.046  15.552  0.1707  0.7420  0.3962
    1ACE      O    6   9.353   7.138  15.536  0.0892  0.2022  0.5427
    2ALA      N    7   9.460   6.994  15.672  0.0092  0.3762  0.0056
    2ALA      H    8   9.523   6.915  15.660 -0.0272  0.2104  0.8274
    2ALA     CA    9   9.368   7.005  15.791  0.6606  0.0862 -0.4679
    2ALA     HA   10   9.400   6.933  15.865 -1.5215  1.6160  2.1954
    2ALA     CB   11   9.377   7.150  15.855  0.3357 -0.3697  0.6176
    2ALA    HB1   12   9.483   7.166  15.875  0.0475  1.0773  1.0988
    2ALA    HB2   13   9.347   7.228  15.786 -3.6218 -0.7798  1.6174
    2ALA    HB3   14   9.313   7.162  15.942 -0.0483  1.2382  0.1505
    2ALA      C   15   9.220   6.962  15.765  0.0206  0.1669  0.3803
    2ALA      O   16   9.192   6.852  15.812  0.5664 -0.2898  0.2526
    3ALA      N   17   9.139   7.040  15.693  0.5469  0.0208  0.7603
    3ALA      H   18   9.179   7.122  15.649 -0.6241 -1.0387 -2.6434
    3ALA     CA   19   8.993   7.024  15.684 -0.6718  1.0438 -0.8751
    3ALA     HA   20   8.965   6.924  15.718  0.8191  0.6112 -0.8499
    3ALA     CB   21   8.921   7.127  15.780 -1.0376  0.2609 -0.6932
    3ALA    HB1   22   8.937   7.229  15.748 -0.4431  0.5245  0.3909
    3ALA    HB2   23   8.814   7.104  15.777 -0.6134 -1.8488 -1.1082
    3ALA    HB3   24   8.966   7.104  15.877 -0.7511 -1.9684 -1.3141
    3ALA      C   25   8.947   7.053  15.539 -0.4564  0.4483  0.8114
    3ALA      O   26   8.827   7.078  15.514  0.0316  0.3520  0.3626
    4NME      N   27   9.040   7.058  15.444  0.5175 -0.0777  0.3030
    4NME      H   28   9.135   7.032  15.466  1.7785  3.2192 -0.6758
    4NME    CH3   29   9.014   7.078  15.304 -0.9130 -0.1101 -0.0068
    4NME   HH31   30   8.916   7.126  15.298 -0.7412  0.5180  1.5093
    4NME   HH32   31   9.097   7.133  15.261  0.0541 -0.7994  0.9423
    4NME   HH33   32   8.990   6.984  15.254  0.6133  0.0518 -1.1270
  20.99041  20.99041  20.99041
