Protein
   32
    1ACE   HH31    1  11.985   9.650  16.671 -0.9769 -0.4674  1.8244
    1ACE    CH3    2  11.948   9.749  16.697 -0.4040  0.1094  0.5377
    1ACE   HH32    3  11.861   9.716  16.754  0.6347  0.4813  2.4562
    1ACE   HH33    4  11.927   9.799  16.602  0.1150 -0.7955 -0.0687
    1ACE      C    5  12.064   9.824  16.768  0.5825  0.2116  0.3330
    1ACE      O    6  12.176   9.776  16.784  0.0269 -0.1979 -0.1132
    2ALA      N    7  12.025   9.937  16.819 -0.2387  0.0822  0.0450
    2ALA      H    8  11.928   9.966  16.816 -0.3218 -0.2992 -2.2385
    2ALA     CA    9  12.108  10.005  16.916 -0.0925  0.3543  0.0944
    2ALA     HA   10  12.202  10.027  16.866  0.0306  0.2450  0.2762
    2ALA     CB   11  12.040  10.133  16.933  0.9204  0.1164  1.4084
    2ALA    HB1   12  12.105  10.197  16.993  1.6698 -0.9612  1.7662
    2ALA    HB2   13  12.016  10.174  16.834 -0.4869 -1.8024  0.8994
    2ALA    HB3   14  11.945  10.120  16.984  0.3252 -0.2074  0.2550
    2ALA      C   15  12.134   9.927  17.045 -0.4276 -0.2260  0.6640
    2ALA      O   16  12.051   9.911  17.133 -0.2548  0.1152  0.5895
    3ALA      N   17  12.265   9.885  17.064 -0.3737 -0.7483 -0.6194
    3ALA      H   18  12.323   9.920  16.989  1.5425 -3.5580 -0.6174
    3ALA     CA   19  12.328   9.798  17.165  0.3631 -0.2159  0.1186
    3ALA     HA   20  12.433   9.828  17.164  0.6240 -1.0902  0.6119
    3ALA     CB   21  12.271   9.814  17.312 -0.1839  0.1769  0.0223
    3ALA    HB1   22  12.244   9.918  17.334 -0.1143 -0.1347  1.6433
    3ALA    HB2   23  12.191   9.742  17.323 -0.4003  0.2570 -0.8894
    3ALA    HB3   24  12.355   9.788  17.376  0.1984  1.1258 -0.0567
    3ALA      C   25  12.347   9.650  17.121  0.1810  0.5166 -0.2330
    3ALA      O   26  12.410   9.569  17.192  0.3297  0.3169 -0.4243
    4NME      N   27  12.307   9.621  16.998  0.2705 -0.2624 -0.2205
    4NME      H   28  12.262   9.694  16.944 -2.2593 -1.1192  0.5668
    4NME    CH3   29  12.332   9.494  16.932  0.3156 -0.2643 -0.8411
    4NME   HH31   30  12.324   9.418  17.009  0.8313  0.9718  0.5086
    4NME   HH32   31  12.264   9.483  16.847  0.9915  0.7339 -1.5449
    4NME   HH33   32  12.435   9.495  16.895  0.2353 -1.3881 -1.1169
  20.99041  20.99041  20.99041
