Protein
   32
    1ACE   HH31    1  11.839  11.009   9.372  0.7387  1.6281 -1.9737
    1ACE    CH3    2  11.882  11.080   9.443  0.3401  0.5110 -0.5758
    1ACE   HH32    3  11.952  11.144   9.389  0.5957  0.2767 -0.5246
    1ACE   HH33    4  11.936  11.017   9.515 -0.8624  1.8128  1.5658
    1ACE      C    5  11.775  11.153   9.513 -0.8851 -0.8144  0.1629
    1ACE      O    6  11.781  11.277   9.527 -0.2103 -0.1842  0.2514
    2ALA      N    7  11.682  11.080   9.571 -0.0928  0.0319 -0.2098
    2ALA      H    8  11.674  10.983   9.544  1.1631  0.3017 -1.6718
    2ALA     CA    9  11.588  11.130   9.669  0.8629 -0.7643  0.0282
    2ALA     HA   10  11.609  11.234   9.692 -1.0591 -0.0863 -1.0963
    2ALA     CB   11  11.443  11.114   9.611 -0.0666 -0.4415 -0.2318
    2ALA    HB1   12  11.379  11.186   9.662 -0.0944  0.4688 -1.5257
    2ALA    HB2   13  11.434  11.134   9.504 -0.7092  0.6686  0.0161
    2ALA    HB3   14  11.410  11.011   9.623 -1.4977  0.0611  0.4664
    2ALA      C   15  11.602  11.053   9.799 -0.4180 -0.4927  0.1328
    2ALA      O   16  11.712  11.006   9.832 -0.0885  0.1110  0.0612
    3ALA      N   17  11.496  11.043   9.879 -0.4120  0.5149 -0.2823
    3ALA      H   18  11.406  11.084   9.857 -1.0173 -0.4829  0.2537
    3ALA     CA   19  11.494  10.945   9.987 -0.2152  1.1840 -0.3011
    3ALA     HA   20  11.576  10.963  10.056 -0.5600  3.6250 -0.4079
    3ALA     CB   21  11.372  10.961  10.062 -0.0339  0.2061 -0.2832
    3ALA    HB1   22  11.375  10.879  10.133  0.7503  0.1050 -0.4281
    3ALA    HB2   23  11.382  11.053  10.120 -1.7238  0.3086 -0.0653
    3ALA    HB3   24  11.279  10.948  10.006 -1.0741  1.6025  1.0141
    3ALA      C   25  11.503  10.806   9.925  0.6264  0.5289 -0.3027
    3ALA      O   26  11.414  10.764   9.851  0.4348  0.5501 -0.1394
    4NME      N   27  11.612  10.728   9.951 -0.5523 -0.0463  0.0491
    4NME      H   28  11.688  10.774   9.999 -0.1724  1.7710 -2.1455
    4NME    CH3   29  11.639  10.603   9.880  0.1845  0.4564 -0.1351
    4NME   HH31   30  11.546  10.557   9.847 -0.3209  0.4965  1.1454
    4NME   HH32   31  11.711  10.609   9.798 -2.4931 -1.5116 -2.8343
    4NME   HH33   32  11.655  10.522   9.952 -2.0828 -0.6953 -0.8396
  20.99041  20.99041  20.99041
