Protein
   22
    1ACE   HH31    1   2.296   7.616   6.894 -0.8749 -1.6896  0.8455
    1ACE    CH3    2   2.361   7.557   6.829  0.2340  0.2633  0.0953
    1ACE   HH32    3   2.349   7.450   6.847 -0.0615  0.4199  0.8415
    1ACE   HH33    4   2.468   7.574   6.845  0.1061 -0.1401  1.4886
    1ACE      C    5   2.331   7.592   6.688  0.2392 -0.5288 -0.0114
    1ACE      O    6   2.375   7.521   6.602 -0.3578  0.1790 -0.3000
    2ALA      N    7   2.273   7.711   6.669  0.2934  0.9327  0.6898
    2ALA      H    8   2.253   7.772   6.747  1.2458  0.5407  1.2590
    2ALA     CA    9   2.219   7.748   6.531 -0.2348  0.5994 -0.6459
    2ALA     HA   10   2.129   7.806   6.546  1.1585  2.4230  1.2646
    2ALA     CB   11   2.331   7.841   6.466  0.1781 -0.4236  0.2522
    2ALA    HB1   12   2.395   7.764   6.423 -0.3806 -1.3340  1.0047
    2ALA    HB2   13   2.290   7.908   6.391  0.7594  1.5441  1.5949
    2ALA    HB3   14   2.387   7.898   6.542  1.4405 -0.2016 -0.8000
    2ALA      C   15   2.174   7.625   6.439 -0.4749 -0.2040  0.2938
    2ALA      O   16   2.097   7.546   6.488  0.0572 -0.3896 -0.2232
    3NME      N   17   2.220   7.605   6.310  0.1449  0.3058 -0.3479
    3NME      H   18   2.287   7.672   6.275  0.1745  0.1384 -0.6230
    3NME    CH3   19   2.179   7.501   6.219 -0.1125 -0.2759 -0.2959
    3NME   HH31   20   2.072   7.492   6.233 -0.0772 -1.0362 -0.4361
    3NME   HH32   21   2.197   7.535   6.117  2.0780  0.5671  0.3211
    3NME   HH33   22   2.236   7.409   6.233 -0.8999 -1.1459 -2.4174
  10.72160  10.72160  10.72160
