Protein
   42
    1ACE   HH31    1  15.806   8.537   9.643 -0.2561 -2.0457  1.9683
    1ACE    CH3    2  15.866   8.471   9.580  0.5618  0.3369  0.1329
    1ACE   HH32    3  15.797   8.399   9.535 -0.9924  1.8869 -0.0577
    1ACE   HH33    4  15.938   8.415   9.640  1.2535  0.2494 -0.7721
    1ACE      C    5  15.933   8.543   9.469 -0.3707  0.0620  0.3915
    1ACE      O    6  16.041   8.606   9.482  0.5859  0.2370 -0.3725
    2ALA      N    7  15.873   8.541   9.352  0.0976 -0.1396 -0.2294
    2ALA      H    8  15.788   8.487   9.351 -0.4904  0.7552  0.3163
    2ALA     CA    9  15.930   8.581   9.224 -0.0428 -0.7283 -0.0057
    2ALA     HA   10  16.023   8.636   9.230 -0.0222 -0.6206 -1.0570
    2ALA     CB   11  15.956   8.444   9.158 -0.8234  0.1922 -0.4025
    2ALA    HB1   12  15.863   8.391   9.143 -1.3238  1.0929 -0.5662
    2ALA    HB2   13  16.009   8.455   9.063 -0.3998 -0.6094 -0.2635
    2ALA    HB3   14  16.026   8.385   9.218 -0.1675  0.9605 -0.3886
    2ALA      C   15  15.835   8.671   9.134  0.1736 -0.4961 -0.9832
    2ALA      O   16  15.834   8.658   9.014 -0.5328  0.1983 -0.7116
    3ALA      N   17  15.758   8.766   9.183 -0.3869 -0.0036 -0.0429
    3ALA      H   18  15.701   8.824   9.123 -1.6982 -0.6562  0.5280
    3ALA     CA   19  15.761   8.816   9.320  0.2964 -0.0913 -0.8696
    3ALA     HA   20  15.856   8.781   9.361  0.2092 -0.8115 -1.2629
    3ALA     CB   21  15.765   8.967   9.323 -0.2039 -0.0924  0.3401
    3ALA    HB1   22  15.856   9.002   9.274  2.7219 -1.0547  4.5811
    3ALA    HB2   23  15.681   9.014   9.271 -0.5119 -0.3355  0.6124
    3ALA    HB3   24  15.777   9.008   9.423  3.4219  0.6262 -0.2815
    3ALA      C   25  15.638   8.772   9.404  0.9845  0.3321  0.2085
    3ALA      O   26  15.627   8.797   9.529 -0.2312  0.1903  0.1941
    4ALA      N   27  15.536   8.728   9.333 -0.0163  0.4370 -0.5951
    4ALA      H   28  15.546   8.716   9.233 -1.8165 -0.8999 -0.6670
    4ALA     CA   29  15.426   8.653   9.395 -0.4907 -0.6526  0.4399
    4ALA     HA   30  15.384   8.712   9.477  2.6170  0.0715  1.6626
    4ALA     CB   31  15.326   8.605   9.294 -0.2719 -0.6788 -0.0692
    4ALA    HB1   32  15.242   8.569   9.354  0.2058  0.0612  1.0973
    4ALA    HB2   33  15.300   8.699   9.246 -0.0275  1.3498  3.4132
    4ALA    HB3   34  15.358   8.527   9.225  1.4306 -0.1612  0.1016
    4ALA      C   35  15.485   8.528   9.466 -0.2457  0.3208  0.6861
    4ALA      O   36  15.576   8.466   9.412 -0.3513  0.3359  0.0230
    5NME      N   37  15.426   8.491   9.576 -0.1487 -0.6739 -0.1079
    5NME      H   38  15.359   8.553   9.618  0.7270  1.1646 -1.2785
    5NME    CH3   39  15.461   8.379   9.659 -0.0643 -0.6550  0.4963
    5NME   HH31   40  15.405   8.371   9.753 -1.0876 -1.9782 -0.1962
    5NME   HH32   41  15.455   8.292   9.595 -3.0636 -2.0569  2.4311
    5NME   HH33   42  15.564   8.378   9.693  0.3669  0.7224 -0.6110
  20.91516  20.91516  20.91516
