Title
  129
    1AIB    CAY    1   9.268  17.526  41.619 -0.6455 -0.0478  0.8081
    1AIB    HY1    2   9.200  17.568  41.696 -0.2288  1.0393  0.5991
    1AIB    HY2    3   9.215  17.562  41.529 -0.5570  2.5807  1.7255
    1AIB    HY3    4   9.363  17.576  41.648 -2.0653  3.2377  0.4104
    1AIB     CY    5   9.273  17.376  41.633  0.8585 -1.2567 -0.9678
    1AIB     OY    6   9.177  17.304  41.664  1.9378  0.5408  0.3158
    1AIB      N    7   9.400  17.320  41.613  0.2664 -0.3372  0.6461
    1AIB     HN    8   9.466  17.370  41.557 -3.1494  4.2431  0.0327
    1AIB     CA    9   9.463  17.217  41.682  0.6171 -0.8530  0.3623
    1AIB    CB1   10   9.477  17.260  41.838 -0.1257 -0.2255 -0.1441
    1AIB   HB11   11   9.511  17.365  41.852  4.4958 -1.3403 -1.4943
    1AIB   HB12   12   9.537  17.189  41.898 -3.4091 -1.4853  1.9374
    1AIB   HB13   13   9.380  17.243  41.890  0.8729 -0.7163  1.6069
    1AIB    CB2   14   9.596  17.206  41.635  0.5940  0.4150 -0.3400
    1AIB   HB21   15   9.658  17.292  41.669  1.4857 -2.1193  5.8635
    1AIB   HB22   16   9.600  17.194  41.525 -1.0186 -2.3547 -0.1969
    1AIB   HB23   17   9.641  17.114  41.676 -0.8980 -1.8594 -3.4635
    1AIB      C   18   9.385  17.087  41.670  0.4844  0.3041 -1.5519
    1AIB      O   19   9.357  17.011  41.769  0.5258 -0.0909  1.0198
    2AIB      N   20   9.362  17.055  41.552 -0.2585  0.8377  0.8400
    2AIB     HN   21   9.410  17.101  41.477  0.1881  2.1987  1.9242
    2AIB     CA   22   9.263  16.964  41.506  0.5980 -0.1418 -1.3420
    2AIB    CB1   23   9.302  16.820  41.547  0.2701 -0.3828  0.0250
    2AIB   HB11   24   9.412  16.826  41.528  0.0190 -1.6296 -1.9214
    2AIB   HB12   25   9.252  16.754  41.473 -0.9117  1.0835 -0.4998
    2AIB   HB13   26   9.267  16.782  41.645 -3.6636  1.6729 -0.4222
    2AIB    CB2   27   9.253  16.984  41.345  0.3917  0.7150 -0.9441
    2AIB   HB21   28   9.164  16.927  41.309 -1.0210 -0.0273  3.1384
    2AIB   HB22   29   9.339  16.930  41.300  1.8909  1.9513  0.3174
    2AIB   HB23   30   9.224  17.085  41.308 -0.7005 -0.1079 -2.4339
    2AIB      C   31   9.115  16.965  41.569 -0.0632  0.4544 -1.5506
    2AIB      O   32   9.015  16.955  41.499  0.7894  0.3882 -0.5081
    3AIB      N   33   9.094  16.985  41.710 -0.3599 -0.5479  0.2976
    3AIB     HN   34   9.165  17.025  41.768 -0.5945 -3.2953  2.6498
    3AIB     CA   35   8.993  16.935  41.801  0.4625 -0.5279 -0.6173
    3AIB    CB1   36   9.064  16.942  41.934  0.1079 -0.0817 -0.9729
    3AIB   HB11   37   9.001  16.913  42.022  0.6876 -0.7244 -0.7554
    3AIB   HB12   38   9.123  17.035  41.947 -0.6050  0.2323  0.1967
    3AIB   HB13   39   9.152  16.875  41.924 -1.0867 -1.6947 -1.1366
    3AIB    CB2   40   8.957  16.792  41.782 -0.1905  0.5888 -0.4955
    3AIB   HB21   41   8.849  16.772  41.761 -0.1001  1.1585 -1.6114
    3AIB   HB22   42   8.977  16.722  41.865 -1.2652  0.7078 -0.1160
    3AIB   HB23   43   9.007  16.748  41.693  2.3782  0.4346  0.9906
    3AIB      C   44   8.874  17.037  41.804 -0.2249 -0.6779 -1.0030
    3AIB      O   45   8.754  17.007  41.797 -0.3104  0.4335  0.3382
    4AIB      N   46   8.913  17.166  41.811 -0.1733 -0.1860  0.4900
    4AIB     HN   47   9.008  17.184  41.787 -0.0032 -2.7053 -1.1858
    4AIB     CA   48   8.819  17.275  41.809 -0.0451 -0.2418 -0.9818
    4AIB    CB1   49   8.894  17.410  41.844  1.7655  0.7110 -0.6156
    4AIB   HB11   50   8.962  17.459  41.771  1.9641  1.0514 -0.2223
    4AIB   HB12   51   8.956  17.395  41.935  1.4008  1.3352 -0.2618
    4AIB   HB13   52   8.821  17.490  41.867  2.3872  1.2881 -0.6004
    4AIB    CB2   53   8.712  17.254  41.930 -0.4080  0.2757  0.2910
    4AIB   HB21   54   8.649  17.165  41.905  2.5234 -0.9943 -3.4869
    4AIB   HB22   55   8.646  17.343  41.936 -1.2966 -0.0690 -2.8702
    4AIB   HB23   56   8.777  17.266  42.019 -0.6372  0.7110  0.4006
    4AIB      C   57   8.760  17.298  41.673 -0.3037  0.1690 -0.6788
    4AIB      O   58   8.657  17.364  41.671  0.2320 -0.1532 -0.4527
    5AIB      N   59   8.820  17.242  41.565 -0.0479 -0.1920  1.1966
    5AIB     HN   60   8.885  17.166  41.562 -1.7236 -1.6562  0.0912
    5AIB     CA   61   8.798  17.287  41.434 -0.5751 -1.2195  0.9728
    5AIB    CB1   62   8.894  17.205  41.336  1.2166 -0.5391  0.2307
    5AIB   HB11   63   8.858  17.206  41.231 -2.5529 -0.1474  1.3732
    5AIB   HB12   64   8.867  17.097  41.344 -2.7069  0.0376 -2.4179
    5AIB   HB13   65   9.002  17.227  41.343  1.2700 -0.6615 -0.1712
    5AIB    CB2   66   8.854  17.436  41.428  0.2666  1.9070 -0.6847
    5AIB   HB21   67   8.956  17.435  41.472 -1.4443  3.5440  3.8527
    5AIB   HB22   68   8.784  17.489  41.496 -2.9272  2.5723 -4.1194
    5AIB   HB23   69   8.860  17.495  41.334  1.6648  3.8777  0.5857
    5AIB      C   70   8.652  17.281  41.387 -0.3160 -0.5473 -0.2501
    5AIB      O   71   8.594  17.372  41.333 -0.5509 -0.5777  1.4260
    6AIB      N   72   8.590  17.173  41.409  0.0006  0.5118  0.0643
    6AIB     HN   73   8.639  17.097  41.451 -0.9299 -1.3430 -2.0087
    6AIB     CA   74   8.451  17.148  41.390 -0.0722 -0.6002 -0.4684
    6AIB    CB1   75   8.418  17.022  41.467  0.2678  0.6397 -0.3619
    6AIB   HB11   76   8.435  16.929  41.409 -1.6170  0.2907 -0.4203
    6AIB   HB12   77   8.309  17.027  41.445  0.4335 -0.2730 -1.5183
    6AIB   HB13   78   8.425  17.011  41.578 -2.0728 -0.3412 -0.2558
    6AIB    CB2   79   8.441  17.138  41.232 -0.1376  0.8007 -0.3495
    6AIB   HB21   80   8.473  17.225  41.172 -2.2961  1.7150 -0.3271
    6AIB   HB22   81   8.342  17.108  41.190  0.4052 -0.2091 -0.9181
    6AIB   HB23   82   8.503  17.057  41.189 -2.0301  0.0277 -1.8146
    6AIB      C   83   8.360  17.258  41.452 -0.0504  0.0591 -0.5715
    6AIB      O   84   8.285  17.334  41.394  0.3079  0.2851 -0.0300
    7AIB      N   85   8.367  17.270  41.595  0.2733  0.0616  0.1300
    7AIB     HN   86   8.434  17.212  41.643 -2.9023 -2.6703  1.6723
    7AIB     CA   87   8.293  17.365  41.679  0.5661 -0.4025 -0.0391
    7AIB    CB1   88   8.374  17.364  41.811 -0.0872 -1.2569 -0.4166
    7AIB   HB11   89   8.335  17.434  41.889 -0.3610  2.2061 -3.4347
    7AIB   HB12   90   8.480  17.396  41.809 -0.6457  0.6811 -0.6141
    7AIB   HB13   91   8.385  17.255  41.827  1.2327 -0.7352  3.4984
    7AIB    CB2   92   8.154  17.296  41.715  0.7554  0.1447  0.0080
    7AIB   HB21   93   8.077  17.307  41.635 -1.2873 -4.1388  1.1646
    7AIB   HB22   94   8.122  17.335  41.814  1.6906  4.3507 -1.1362
    7AIB   HB23   95   8.188  17.193  41.736 -2.5764 -0.8440  1.2510
    7AIB      C   96   8.292  17.521  41.648 -0.1501  0.0731  0.3039
    7AIB      O   97   8.239  17.605  41.726  1.0010  0.6299 -0.3054
    8AIB      N   98   8.363  17.570  41.542 -0.7952  0.2651  1.0105
    8AIB     HN   99   8.402  17.501  41.482  1.2911  1.6808  0.6629
    8AIB     CA  100   8.393  17.706  41.508 -0.0043 -0.6802  0.8629
    8AIB    CB1  101   8.515  17.707  41.407 -0.6146  0.5279  0.1610
    8AIB   HB11  102   8.527  17.631  41.327  0.9870 -1.5472  2.2395
    8AIB   HB12  103   8.607  17.688  41.467 -0.1749 -2.8416 -1.3245
    8AIB   HB13  104   8.517  17.809  41.363 -0.9031  0.5118  0.0997
    8AIB    CB2  105   8.437  17.792  41.620 -0.2968 -0.5086  0.1746
    8AIB   HB21  106   8.501  17.875  41.584  3.7441 -1.5771  4.1087
    8AIB   HB22  107   8.493  17.740  41.701 -0.0338  0.4471  0.6196
    8AIB   HB23  108   8.365  17.818  41.701  2.7192  0.3154  2.8020
    8AIB      C  109   8.273  17.786  41.437  0.6026 -0.4817 -0.3141
    8AIB      O  110   8.277  17.910  41.412  0.2754 -0.0853 -0.6249
    9AIB      N  111   8.165  17.709  41.399  0.7505 -0.0210  0.4031
    9AIB     HN  112   8.163  17.611  41.414  1.7281 -0.2379 -0.7499
    9AIB     CA  113   8.040  17.742  41.346  0.8906 -0.8232  1.1771
    9AIB    CB1  114   7.969  17.609  41.311 -0.2906  1.1976  0.7535
    9AIB   HB11  115   7.939  17.545  41.397  0.7347  3.0449  2.5400
    9AIB   HB12  116   8.036  17.550  41.245 -3.5400 -2.0729  0.0203
    9AIB   HB13  117   7.870  17.608  41.262 -1.3138 -1.3910  2.5962
    9AIB    CB2  118   8.061  17.817  41.216 -1.4764 -0.4407 -0.1475
    9AIB   HB21  119   8.120  17.911  41.209 -0.3228 -0.7576  3.6031
    9AIB   HB22  120   7.967  17.853  41.167  0.2974  0.7631 -2.9699
    9AIB   HB23  121   8.124  17.760  41.145 -1.7423  2.7044 -3.2747
    9AIB      C  122   7.951  17.827  41.457  0.1590 -1.8648 -0.1072
    9AIB      O  123   7.875  17.904  41.409  0.8287 -0.5845  1.4611
    9AIB     NT  124   7.956  17.802  41.596  1.0480 -0.5647 -0.7191
    9AIB    HNT  125   8.022  17.746  41.646  1.1637 -0.3421 -0.6071
    9AIB    CAT  126   7.879  17.900  41.664 -1.9496  0.1196 -1.5048
    9AIB    HT1  127   7.912  18.006  41.663 -1.9115  0.4786  4.2879
    9AIB    HT2  128   7.876  17.866  41.770 -1.6218 -0.4354 -1.6630
    9AIB    HT3  129   7.769  17.898  41.647 -1.9326  0.1115 -1.6149
  42.09246  42.09246  42.09246
