Protein
   42
    1ACE   HH31    1  11.587  12.952   6.751  0.7726 -0.3933 -2.2704
    1ACE    CH3    2  11.664  12.880   6.775  0.2787 -0.1564  0.3439
    1ACE   HH32    3  11.746  12.888   6.704 -0.0742  1.6450  0.1043
    1ACE   HH33    4  11.624  12.779   6.780 -0.8621  0.3354  1.6875
    1ACE      C    5  11.719  12.919   6.908  0.1196  1.1479 -0.2323
    1ACE      O    6  11.840  12.943   6.909  0.5398 -0.1729 -0.2012
    2ALA      N    7  11.633  12.932   7.013  0.0218  0.1293  0.6876
    2ALA      H    8  11.542  12.898   6.986  1.0106 -0.9254 -1.5926
    2ALA     CA    9  11.658  12.966   7.151 -0.1938 -0.3194 -0.2041
    2ALA     HA   10  11.764  12.976   7.170  0.1537 -0.0491 -2.1471
    2ALA     CB   11  11.613  13.112   7.183 -0.3427 -0.1934  0.2181
    2ALA    HB1   12  11.637  13.147   7.283  0.4012  1.2105 -0.4354
    2ALA    HB2   13  11.648  13.181   7.107  0.1278 -2.3842 -1.6809
    2ALA    HB3   14  11.504  13.112   7.172 -0.3905  0.8429  0.5560
    2ALA      C   15  11.603  12.854   7.246  0.3530 -0.7694 -0.1010
    2ALA      O   16  11.540  12.759   7.205  0.4927 -0.6383 -0.3257
    3ALA      N   17  11.631  12.880   7.378 -0.0002  0.0160  0.7368
    3ALA      H   18  11.707  12.943   7.401  1.1629 -1.3012  0.5933
    3ALA     CA   19  11.566  12.814   7.489 -0.3946  0.4877 -0.2177
    3ALA     HA   20  11.592  12.859   7.585  1.0448 -0.3738 -0.1623
    3ALA     CB   21  11.408  12.830   7.475  0.3365 -0.0593 -0.0580
    3ALA    HB1   22  11.359  12.797   7.567  2.2439  0.7611  1.2861
    3ALA    HB2   23  11.393  12.937   7.458  2.6513  1.1324  4.0270
    3ALA    HB3   24  11.366  12.775   7.391  2.3590  0.9483 -1.8168
    3ALA      C   25  11.599  12.660   7.509 -0.9323  0.1158 -0.2506
    3ALA      O   26  11.648  12.621   7.611 -0.2620  0.0005 -0.0706
    4ALA      N   27  11.568  12.570   7.415  0.0964 -0.7487 -0.2299
    4ALA      H   28  11.518  12.607   7.335  0.4911 -0.4949 -0.3618
    4ALA     CA   29  11.623  12.430   7.397  0.7209 -0.0011 -0.2686
    4ALA     HA   30  11.610  12.412   7.290 -0.3588  0.1979 -0.1859
    4ALA     CB   31  11.775  12.419   7.423  0.0267  0.2904 -0.1340
    4ALA    HB1   32  11.794  12.418   7.530  0.6049  0.8867 -0.2236
    4ALA    HB2   33  11.808  12.323   7.383  1.1100  0.7951 -0.4836
    4ALA    HB3   34  11.828  12.504   7.380 -0.3594  1.0346  0.8393
    4ALA      C   35  11.540  12.321   7.467  0.1819 -0.6433  0.2110
    4ALA      O   36  11.507  12.224   7.405  0.3937 -0.2158  0.2734
    5NME      N   37  11.492  12.343   7.585 -0.4705  0.5494 -0.6023
    5NME      H   38  11.515  12.428   7.634 -0.2575 -0.6516  1.5256
    5NME    CH3   39  11.402  12.253   7.658  0.0614 -0.1605 -0.0926
    5NME   HH31   40  11.345  12.311   7.731  1.7313  0.9607  0.3781
    5NME   HH32   41  11.335  12.210   7.583 -0.2321  0.4678 -0.2047
    5NME   HH33   42  11.452  12.164   7.693 -0.9353 -2.0215 -3.0487
  20.91516  20.91516  20.91516
