Protein
   42
    1ACE   HH31    1  12.023  11.610  14.796 -0.0016 -1.0122 -0.1333
    1ACE    CH3    2  11.944  11.548  14.753 -0.3276 -0.7761  0.1212
    1ACE   HH32    3  11.976  11.523  14.652 -1.9306 -0.0407 -0.6159
    1ACE   HH33    4  11.854  11.608  14.735  0.3966 -0.0793 -1.3542
    1ACE      C    5  11.918  11.422  14.830 -0.9886  0.3848 -0.1646
    1ACE      O    6  11.808  11.375  14.854  0.0717 -0.0483  0.1100
    2ALA      N    7  12.028  11.368  14.883  0.1223 -0.4633  0.0256
    2ALA      H    8  12.117  11.416  14.879  0.8782 -1.7008  1.1016
    2ALA     CA    9  12.036  11.235  14.943 -0.1961  0.5341 -0.3852
    2ALA     HA   10  11.945  11.204  14.995  1.0018  1.2972  2.3063
    2ALA     CB   11  12.057  11.133  14.833 -0.1192  0.8227 -0.1801
    2ALA    HB1   12  12.057  11.036  14.882  1.0350  0.7683 -0.2489
    2ALA    HB2   13  11.975  11.143  14.762  0.5689  2.9008 -0.7806
    2ALA    HB3   14  12.153  11.153  14.785  0.2236  1.1351  0.6044
    2ALA      C   15  12.155  11.235  15.037 -0.7641  0.1987 -0.1167
    2ALA      O   16  12.245  11.318  15.019 -0.3473  0.4752  0.1819
    3ALA      N   17  12.156  11.147  15.135 -0.0741  0.0416 -0.0734
    3ALA      H   18  12.083  11.078  15.141  0.8725 -0.8213  2.1721
    3ALA     CA   19  12.248  11.133  15.252 -0.3017  1.1671 -0.2098
    3ALA     HA   20  12.330  11.066  15.226  0.1973  1.0654  1.5310
    3ALA     CB   21  12.306  11.260  15.305 -0.9564 -0.5759  0.4575
    3ALA    HB1   22  12.367  11.302  15.225 -1.5522  1.7866  1.1554
    3ALA    HB2   23  12.232  11.338  15.324 -0.6676  0.9196 -3.6258
    3ALA    HB3   24  12.375  11.228  15.384  2.3245  1.4046 -1.3756
    3ALA      C   25  12.152  11.064  15.352 -0.2887 -0.2385 -0.2973
    3ALA      O   26  12.182  10.954  15.402  0.3438 -0.7997  0.3473
    4ALA      N   27  12.045  11.135  15.384 -0.5373  0.1428 -0.3521
    4ALA      H   28  12.041  11.234  15.362  0.1057 -0.2561 -2.5033
    4ALA     CA   29  11.926  11.066  15.447 -0.3824 -0.0703  0.4664
    4ALA     HA   30  11.949  11.027  15.546 -1.0311 -1.7311  0.0107
    4ALA     CB   31  11.816  11.171  15.463  0.2335  0.4057  0.0063
    4ALA    HB1   32  11.802  11.239  15.379  0.8790 -0.0659 -0.4903
    4ALA    HB2   33  11.728  11.116  15.497  0.3312  0.1327 -0.1778
    4ALA    HB3   34  11.839  11.234  15.549 -1.8954  0.1055  0.8608
    4ALA      C   35  11.880  10.952  15.357  0.5009  0.2828  0.4347
    4ALA      O   36  11.883  10.967  15.235  0.9167  0.2657  0.1923
    5NME      N   37  11.845  10.838  15.419  0.3039 -0.0371 -0.0382
    5NME      H   38  11.853  10.844  15.520  1.1035  0.5524 -0.1251
    5NME    CH3   39  11.784  10.722  15.359  0.8650  0.5188  0.1293
    5NME   HH31   40  11.856  10.640  15.361 -0.6591 -0.8884 -0.5059
    5NME   HH32   41  11.706  10.686  15.425  1.2986 -0.7035  0.0180
    5NME   HH33   42  11.769  10.736  15.252  3.0617 -2.7773 -0.7827
  20.91516  20.91516  20.91516
