Protein
   32
    1ACE   HH31    1  14.013  12.595  10.468  0.8914 -1.5487 -0.1770
    1ACE    CH3    2  13.964  12.574  10.373 -0.4652 -0.0219  0.1390
    1ACE   HH32    3  14.005  12.485  10.325  0.8632  0.9807 -0.6492
    1ACE   HH33    4  13.968  12.663  10.310  1.1416  0.4391  0.8358
    1ACE      C    5  13.817  12.540  10.399 -0.2041  0.6363  0.1003
    1ACE      O    6  13.788  12.429  10.444  0.2408  0.2413  0.0080
    2ALA      N    7  13.736  12.631  10.348  0.1480  0.4217  0.1912
    2ALA      H    8  13.772  12.717  10.310  0.4558 -0.7359 -2.3084
    2ALA     CA    9  13.590  12.628  10.350  0.4452  0.3806 -0.1309
    2ALA     HA   10  13.553  12.530  10.324  0.9541  0.0848  0.2303
    2ALA     CB   11  13.545  12.658  10.495  0.0145  0.3646  0.0443
    2ALA    HB1   12  13.439  12.684  10.493 -0.0167  0.3012  0.6829
    2ALA    HB2   13  13.561  12.577  10.566 -0.1141  0.6106  0.3644
    2ALA    HB3   14  13.586  12.754  10.529 -2.1386  1.4376 -0.1719
    2ALA      C   15  13.527  12.735  10.265 -0.5940  0.4002 -0.2010
    2ALA      O   16  13.546  12.859  10.288 -0.3718  0.9647  0.6073
    3ALA      N   17  13.437  12.690  10.176 -0.0167  0.5902 -0.1193
    3ALA      H   18  13.430  12.590  10.165 -1.4255  0.9113 -3.2655
    3ALA     CA   19  13.356  12.765  10.083 -0.0501 -0.7086 -0.2909
    3ALA     HA   20  13.397  12.865  10.093 -1.4027  0.1787 -2.9369
    3ALA     CB   21  13.381  12.720   9.938  0.6355 -0.1982  0.1448
    3ALA    HB1   22  13.488  12.720   9.917  0.4745 -0.1481 -0.7188
    3ALA    HB2   23  13.352  12.615   9.929 -0.1560  0.1510 -2.2388
    3ALA    HB3   24  13.323  12.784   9.871 -1.3488 -1.4022  0.6494
    3ALA      C   25  13.209  12.778  10.122  0.2075  0.2470 -0.8487
    3ALA      O   26  13.135  12.674  10.121 -0.4131 -0.0584  0.8234
    4NME      N   27  13.162  12.904  10.146 -0.3178 -0.2274  0.1712
    4NME      H   28  13.229  12.976  10.127  0.6467 -0.9265  0.8279
    4NME    CH3   29  13.020  12.939  10.151 -0.2857  0.1784  0.0990
    4NME   HH31   30  12.966  12.879  10.077 -1.1207 -0.1462  0.9475
    4NME   HH32   31  12.986  12.922  10.253  0.0944 -1.5900 -0.0349
    4NME   HH33   32  13.014  13.046  10.129  2.1877  0.6651  1.4009
  20.99041  20.99041  20.99041
