Protein
   32
    1ACE   HH31    1  10.370   6.298   8.216 -0.4180  1.7249  1.5681
    1ACE    CH3    2  10.431   6.262   8.299  0.4080 -0.4069  0.1289
    1ACE   HH32    3  10.521   6.320   8.320 -0.6781  1.1203  0.7464
    1ACE   HH33    4  10.462   6.159   8.282 -1.9633 -1.4467  1.6073
    1ACE      C    5  10.344   6.253   8.424 -0.2064  0.0977  0.6480
    1ACE      O    6  10.373   6.166   8.505  0.0271  0.3553 -0.2265
    2ALA      N    7  10.247   6.348   8.451 -0.3529  0.5798 -0.7013
    2ALA      H    8  10.243   6.423   8.384  1.0740  1.3637  0.0276
    2ALA     CA    9  10.152   6.359   8.563  0.3335  0.5047 -0.6073
    2ALA     HA   10  10.216   6.383   8.648  1.5287 -0.6881 -1.1227
    2ALA     CB   11  10.063   6.479   8.542 -0.3494  0.1175  0.2489
    2ALA    HB1   12  10.021   6.506   8.639  0.4052 -0.8515  0.8616
    2ALA    HB2   13  10.119   6.561   8.497  1.9485 -2.2024 -1.3657
    2ALA    HB3   14   9.979   6.463   8.474 -0.3858  0.5354  0.1912
    2ALA      C   15  10.071   6.238   8.616 -0.1354  0.0744 -1.1085
    2ALA      O   16   9.962   6.257   8.670  0.3983 -0.2295 -0.0982
    3ALA      N   17  10.123   6.116   8.606 -0.7904 -0.1220  0.3836
    3ALA      H   18  10.216   6.113   8.567  0.0929  0.2498  2.3403
    3ALA     CA   19  10.068   5.999   8.653  0.3893 -0.6201 -0.1317
    3ALA     HA   20  10.125   5.927   8.594  0.3093 -0.0066 -0.9813
    3ALA     CB   21  10.086   5.988   8.806  0.9468 -0.2914 -0.2089
    3ALA    HB1   22  10.007   6.047   8.854  0.1367 -1.1492 -0.4515
    3ALA    HB2   23  10.080   5.881   8.822  1.0714 -0.9638 -3.7513
    3ALA    HB3   24  10.182   6.024   8.842  0.3492  2.0137 -0.6977
    3ALA      C   25   9.921   5.963   8.607  0.3148 -0.0536  0.0883
    3ALA      O   26   9.862   5.865   8.658 -0.4167  0.2434  0.1256
    4NME      N   27   9.870   6.029   8.498 -0.5431 -0.0089  0.6069
    4NME      H   28   9.906   6.119   8.471  0.6636 -1.2342 -2.3361
    4NME    CH3   29   9.737   5.997   8.438  0.6654 -0.0301 -0.3187
    4NME   HH31   30   9.734   6.002   8.329 -2.3667 -0.3564 -0.3361
    4NME   HH32   31   9.701   5.899   8.468 -0.9745  0.7126  0.2605
    4NME   HH33   32   9.662   6.062   8.483  1.8869  0.9864  0.3149
  20.99041  20.99041  20.99041
