Protein
   42
    1ACE   HH31    1   8.496   4.621  12.891 -0.9638  3.6119 -0.0352
    1ACE    CH3    2   8.423   4.608  12.971 -0.7647 -0.0477 -0.3306
    1ACE   HH32    3   8.392   4.704  13.011 -0.1440 -0.3959  1.0636
    1ACE   HH33    4   8.470   4.551  13.051 -0.4295  0.4739 -0.1464
    1ACE      C    5   8.302   4.538  12.921  0.6658  0.6704  0.6065
    1ACE      O    6   8.282   4.422  12.943 -0.6662 -0.0189  0.0243
    2ALA      N    7   8.217   4.614  12.844  0.1319  0.6660 -0.1721
    2ALA      H    8   8.231   4.714  12.846 -1.3880  0.9255 -0.7924
    2ALA     CA    9   8.085   4.574  12.800 -0.4102 -0.0707  0.0486
    2ALA     HA   10   8.085   4.470  12.767 -0.8386  0.0101 -0.2006
    2ALA     CB   11   7.990   4.601  12.911  0.4918 -0.2965  0.9311
    2ALA    HB1   12   7.888   4.610  12.873  1.3395  0.1883 -1.3949
    2ALA    HB2   13   7.999   4.516  12.977  4.7033 -0.9065 -0.1557
    2ALA    HB3   14   8.008   4.686  12.977  0.3175  0.4934 -0.0089
    2ALA      C   15   8.067   4.675  12.677 -0.1123 -0.1270 -0.3341
    2ALA      O   16   8.109   4.785  12.683  0.3185 -0.4997 -0.5975
    3ALA      N   17   8.007   4.632  12.562  0.0519 -0.2040 -0.3095
    3ALA      H   18   8.003   4.688  12.479  0.6490 -1.3609 -1.1480
    3ALA     CA   19   7.942   4.498  12.555 -0.2626 -0.7769  0.4155
    3ALA     HA   20   7.900   4.480  12.654 -0.4629  0.3206  0.5419
    3ALA     CB   21   7.824   4.505  12.448  0.0576  0.0399 -0.6220
    3ALA    HB1   22   7.755   4.421  12.457  1.7322 -1.4394 -1.0409
    3ALA    HB2   23   7.762   4.592  12.470  0.7557 -0.1548  2.5226
    3ALA    HB3   24   7.857   4.539  12.349  0.7742  2.0565  0.2311
    3ALA      C   25   8.042   4.387  12.521 -0.6023  0.4369  0.6465
    3ALA      O   26   7.999   4.275  12.491  0.1424 -0.1596 -0.8359
    4ALA      N   27   8.175   4.413  12.519 -0.1314 -0.3160 -0.1371
    4ALA      H   28   8.203   4.510  12.523 -1.2930  0.0098  1.4285
    4ALA     CA   29   8.287   4.316  12.518  0.7945  0.1686  0.5654
    4ALA     HA   30   8.250   4.220  12.554  0.4510  0.6625  1.5403
    4ALA     CB   31   8.339   4.291  12.373  0.7409 -0.4210 -0.7223
    4ALA    HB1   32   8.258   4.256  12.308 -0.4877  0.3173  0.3692
    4ALA    HB2   33   8.390   4.378  12.331  2.7334  0.4222  3.0085
    4ALA    HB3   34   8.404   4.205  12.386  1.8811  0.6532  0.9696
    4ALA      C   35   8.408   4.363  12.602 -0.3154 -0.6640 -0.4600
    4ALA      O   36   8.429   4.486  12.625 -0.3952  0.3613  0.0378
    5NME      N   37   8.487   4.263  12.646  0.4763 -0.5591 -0.6816
    5NME      H   38   8.471   4.170  12.609  1.0763 -0.2894 -1.6403
    5NME    CH3   39   8.615   4.297  12.714  0.0770 -0.5846  0.1108
    5NME   HH31   40   8.675   4.363  12.651  0.7427 -0.6495  0.6636
    5NME   HH32   41   8.597   4.344  12.810  0.1216 -1.7412  0.7001
    5NME   HH33   42   8.666   4.201  12.724 -1.6938 -1.6221 -0.3246
  20.91516  20.91516  20.91516
