Protein
   42
    1ACE   HH31    1  11.543   8.643   4.750 -0.8769  0.4844  0.7134
    1ACE    CH3    2  11.495   8.618   4.655  0.0751 -0.4569  0.4617
    1ACE   HH32    3  11.565   8.581   4.581 -0.8005 -0.9671 -0.1282
    1ACE   HH33    4  11.420   8.683   4.610 -0.4510 -1.5749 -0.3595
    1ACE      C    5  11.410   8.500   4.688 -0.0841  0.5083  0.7337
    1ACE      O    6  11.292   8.513   4.722 -0.1572 -0.0636  0.5032
    2ALA      N    7  11.472   8.380   4.675 -0.2338  0.1421 -0.6069
    2ALA      H    8  11.572   8.392   4.663 -0.0301  0.8097  1.4112
    2ALA     CA    9  11.415   8.249   4.702 -0.7081 -0.0897  0.0106
    2ALA     HA   10  11.461   8.178   4.633 -2.1887  0.3537 -1.4846
    2ALA     CB   11  11.459   8.206   4.840 -0.3327 -0.3282 -0.2090
    2ALA    HB1   12  11.430   8.103   4.861 -0.2621 -0.0002  1.5899
    2ALA    HB2   13  11.566   8.221   4.854 -0.0422 -0.5247 -2.0096
    2ALA    HB3   14  11.401   8.250   4.921  0.8150  0.1768  0.3513
    2ALA      C   15  11.263   8.234   4.669 -0.3261 -0.4994  0.0316
    2ALA      O   16  11.231   8.207   4.553  0.6175  0.4230 -0.0815
    3ALA      N   17  11.172   8.250   4.769  0.0434  0.3124 -0.3830
    3ALA      H   18  11.206   8.270   4.862  0.3861  0.0495 -0.4495
    3ALA     CA   19  11.029   8.279   4.749  0.0321 -0.2127  0.1910
    3ALA     HA   20  10.971   8.188   4.759 -0.4666 -0.0518 -0.9902
    3ALA     CB   21  10.984   8.358   4.875  0.5846  0.7862 -0.3055
    3ALA    HB1   22  10.990   8.288   4.958  0.1054  1.5282  0.3812
    3ALA    HB2   23  11.052   8.441   4.896  1.3611  0.2562 -0.7213
    3ALA    HB3   24  10.885   8.403   4.868  0.9137  1.9074  1.5435
    3ALA      C   25  10.990   8.342   4.610 -0.2360 -0.0343  0.3861
    3ALA      O   26  10.895   8.298   4.540  0.3423 -0.1328 -0.9080
    4ALA      N   27  11.071   8.437   4.561  0.3263 -0.3954  0.4207
    4ALA      H   28  11.159   8.460   4.605  2.3008 -0.1744 -3.2693
    4ALA     CA   29  11.030   8.533   4.455  0.3483 -0.2096  0.0247
    4ALA     HA   30  10.958   8.490   4.386  0.5825  0.5711 -0.7262
    4ALA     CB   31  10.958   8.646   4.526  0.5938 -0.1141 -0.4715
    4ALA    HB1   32  11.028   8.686   4.600  1.2958 -1.2015 -0.5206
    4ALA    HB2   33  10.934   8.724   4.455  0.5015 -0.5924 -0.9634
    4ALA    HB3   34  10.863   8.613   4.567  0.6425  0.1112 -0.1673
    4ALA      C   35  11.152   8.582   4.368 -0.2552  0.8217  0.0949
    4ALA      O   36  11.144   8.693   4.316  0.5296 -0.3194 -0.2507
    5NME      N   37  11.255   8.503   4.360 -0.8698 -0.3328  0.5840
    5NME      H   38  11.258   8.415   4.409  1.4633 -0.7604 -0.1571
    5NME    CH3   39  11.379   8.536   4.294  0.2160  0.0220 -0.3589
    5NME   HH31   40  11.352   8.569   4.194  1.2979 -2.1926 -1.4346
    5NME   HH32   41  11.437   8.612   4.347 -1.0023  0.6835  0.0690
    5NME   HH33   42  11.443   8.449   4.282 -0.7520 -0.9726  1.2468
  20.91516  20.91516  20.91516
