Protein
   32
    1ACE   HH31    1   8.288  10.298  14.944  3.7513  0.0944 -1.4347
    1ACE    CH3    2   8.252  10.250  14.853  0.5472  0.1211 -0.2962
    1ACE   HH32    3   8.195  10.316  14.789 -1.0592 -0.4401  0.4936
    1ACE   HH33    4   8.180  10.171  14.877 -1.3031  1.8379  0.0802
    1ACE      C    5   8.376  10.198  14.783  0.1145 -0.5207 -0.9588
    1ACE      O    6   8.483  10.244  14.820  0.4133 -0.1120  0.2572
    2ALA      N    7   8.354  10.120  14.678  0.2144 -0.0110  0.5853
    2ALA      H    8   8.261  10.104  14.643 -0.4674  2.3918  1.1753
    2ALA     CA    9   8.456  10.053  14.600 -0.2164 -0.3752 -0.1211
    2ALA     HA   10   8.426   9.951  14.575 -1.1203 -0.0827 -0.2643
    2ALA     CB   11   8.474  10.141  14.475  0.6301 -0.5955 -0.2954
    2ALA    HB1   12   8.530  10.085  14.400 -0.5188  0.5262 -2.0769
    2ALA    HB2   13   8.373  10.149  14.436 -0.0193 -0.0066  1.4125
    2ALA    HB3   14   8.516  10.241  14.488  1.2048 -0.9184  0.3575
    2ALA      C   15   8.596  10.035  14.678  0.5694  0.4059 -0.4782
    2ALA      O   16   8.596   9.979  14.787  0.3517  0.5665 -0.2338
    3ALA      N   17   8.709  10.059  14.610  0.2040 -0.0117  0.2001
    3ALA      H   18   8.688  10.095  14.518  2.4186  1.9562  0.3971
    3ALA     CA   19   8.840  10.085  14.664 -0.4522 -0.2465 -0.7028
    3ALA     HA   20   8.904  10.006  14.622  0.3764  0.2108 -0.3312
    3ALA     CB   21   8.894  10.207  14.595 -0.3635  0.2834  0.4906
    3ALA    HB1   22   9.000  10.225  14.615 -0.2521  0.3509 -0.1297
    3ALA    HB2   23   8.875  10.202  14.487  1.6330 -2.0936  0.1403
    3ALA    HB3   24   8.840  10.296  14.628  1.1980  1.9141 -1.0222
    3ALA      C   25   8.876  10.097  14.820  0.1944 -0.5365  0.1066
    3ALA      O   26   8.990  10.084  14.847  0.3587 -0.5067 -0.5900
    4NME      N   27   8.784  10.124  14.914  0.4433  0.2857  0.2030
    4NME      H   28   8.689  10.121  14.880  0.7115 -2.4298 -0.5092
    4NME    CH3   29   8.812  10.116  15.059 -0.6780 -0.0534 -0.3487
    4NME   HH31   30   8.907  10.165  15.080  0.2091 -1.7448 -0.2326
    4NME   HH32   31   8.729  10.159  15.115 -1.5297 -0.2099 -1.4348
    4NME   HH33   32   8.835  10.012  15.080 -1.3152 -0.2906 -0.7749
  20.99041  20.99041  20.99041
