Protein
   32
    1ACE   HH31    1   7.386  11.178  11.745  1.3714 -3.7310 -0.2310
    1ACE    CH3    2   7.391  11.184  11.853 -0.8177 -0.5383 -0.2028
    1ACE   HH32    3   7.294  11.179  11.903 -0.2174 -1.3467  0.9357
    1ACE   HH33    4   7.442  11.277  11.878 -0.5440 -1.0948  1.3891
    1ACE      C    5   7.474  11.062  11.884 -0.2470 -0.8705  0.1806
    1ACE      O    6   7.600  11.063  11.885  0.6842 -0.1768 -0.1719
    2ALA      N    7   7.411  10.948  11.915 -0.1754 -0.0989  0.3750
    2ALA      H    8   7.311  10.947  11.902 -0.3535 -0.2672  1.6153
    2ALA     CA    9   7.477  10.818  11.915 -0.0096 -0.2168  0.4694
    2ALA     HA   10   7.564  10.825  11.980  0.4850 -0.3237 -0.1668
    2ALA     CB   11   7.375  10.709  11.960  0.8837 -0.5163 -0.1837
    2ALA    HB1   12   7.291  10.705  11.891 -0.5126 -0.2421  1.3902
    2ALA    HB2   13   7.411  10.607  11.974  0.4386 -0.8710 -1.4814
    2ALA    HB3   14   7.329  10.744  12.052  1.8446 -3.0772  1.3554
    2ALA      C   15   7.538  10.794  11.772  0.0652 -0.2506 -0.1823
    2ALA      O   16   7.477  10.842  11.675  0.3633 -0.0586  0.0418
    3ALA      N   17   7.653  10.725  11.762  0.0621  0.3110  0.7940
    3ALA      H   18   7.694  10.691  11.848  0.5786  0.3117  0.5606
    3ALA     CA   19   7.712  10.680  11.634  0.2412  1.5311 -0.0130
    3ALA     HA   20   7.780  10.599  11.661 -2.2707 -0.0508  2.1746
    3ALA     CB   21   7.611  10.608  11.533  0.9181 -0.1304  0.0798
    3ALA    HB1   22   7.542  10.546  11.590  0.1466  0.6201 -0.0242
    3ALA    HB2   23   7.555  10.685  11.479  0.4224 -0.4260  0.1721
    3ALA    HB3   24   7.667  10.542  11.466 -0.1214  0.0687 -1.0171
    3ALA      C   25   7.797  10.781  11.572 -0.7593  0.0094 -0.2265
    3ALA      O   26   7.907  10.749  11.537 -0.0422  0.3694  0.5656
    4NME      N   27   7.751  10.911  11.567 -0.0924 -0.0082 -0.3749
    4NME      H   28   7.656  10.926  11.597 -0.1369  2.1687 -1.4425
    4NME    CH3   29   7.820  11.029  11.511  0.4665 -0.3464  0.0121
    4NME   HH31   30   7.857  10.997  11.413 -0.7945  0.5467 -0.8026
    4NME   HH32   31   7.755  11.116  11.497  1.8271  0.7882  0.4641
    4NME   HH33   32   7.897  11.059  11.582 -1.7997 -0.6375  2.7853
  20.99041  20.99041  20.99041
