Protein
   32
    1ACE   HH31    1   8.542  12.866  10.546  0.1361 -2.0121  2.3267
    1ACE    CH3    2   8.434  12.884  10.551  0.2151 -0.1050 -0.0889
    1ACE   HH32    3   8.390  12.966  10.495  3.4389  2.8616  1.3827
    1ACE   HH33    4   8.417  12.920  10.653 -0.0960  3.1614 -1.1724
    1ACE      C    5   8.365  12.756  10.536  0.2155  0.3336  0.4012
    1ACE      O    6   8.412  12.643  10.545 -0.6191  0.2234 -1.3464
    2ALA      N    7   8.229  12.782  10.548 -1.2167  1.1452 -1.0149
    2ALA      H    8   8.193  12.876  10.539 -3.3379  0.2305 -3.7871
    2ALA     CA    9   8.138  12.680  10.590  0.5713  0.1587  0.3861
    2ALA     HA   10   8.205  12.627  10.658 -1.3377 -0.1601  2.0845
    2ALA     CB   11   8.020  12.728  10.673 -0.1848 -0.9538  1.1841
    2ALA    HB1   12   7.931  12.685  10.627 -0.1885 -1.1635  1.3892
    2ALA    HB2   13   8.033  12.702  10.778  0.9877 -1.2879  0.9657
    2ALA    HB3   14   8.006  12.835  10.665 -1.6022 -1.2663 -2.0827
    2ALA      C   15   8.106  12.597  10.464 -0.0828  0.7236 -1.0826
    2ALA      O   16   7.996  12.614  10.406 -0.4890  0.8422 -0.0324
    3ALA      N   17   8.192  12.510  10.424 -0.3829 -0.5192  0.7911
    3ALA      H   18   8.274  12.503  10.483 -1.6206 -0.1952  2.6238
    3ALA     CA   19   8.189  12.454  10.281 -1.0938  0.3706 -0.7453
    3ALA     HA   20   8.154  12.539  10.222  1.2129  1.4039 -0.7535
    3ALA     CB   21   8.335  12.416  10.257 -0.1299  0.4855  0.1213
    3ALA    HB1   22   8.369  12.357  10.342 -0.5791 -1.8801 -1.2770
    3ALA    HB2   23   8.334  12.364  10.161 -2.9563 -0.7142  0.7073
    3ALA    HB3   24   8.397  12.505  10.243  0.2165  0.6643  2.4667
    3ALA      C   25   8.096  12.334  10.262  0.5775  0.4224  0.0194
    3ALA      O   26   8.134  12.222  10.267 -0.6143 -0.4514  0.4121
    4NME      N   27   7.976  12.366  10.220  0.7977 -0.5497 -0.2001
    4NME      H   28   7.975  12.467  10.224 -0.6744 -0.3276 -3.2978
    4NME    CH3   29   7.849  12.298  10.168 -0.1084 -0.1677  0.0082
    4NME   HH31   30   7.793  12.365  10.104 -0.9203 -5.1923 -5.4082
    4NME   HH32   31   7.866  12.202  10.118  1.9941  0.9400 -1.5532
    4NME   HH33   32   7.808  12.256  10.260  3.2928 -0.0006  1.8257
  20.99041  20.99041  20.99041
