Protein
   42
    1ACE   HH31    1   9.256  10.530   3.532 -0.1296  0.2300  0.3928
    1ACE    CH3    2   9.172  10.582   3.485 -0.1225 -0.3950 -0.3265
    1ACE   HH32    3   9.087  10.580   3.553 -0.4154 -0.1275 -0.6785
    1ACE   HH33    4   9.144  10.529   3.394 -0.4088 -0.1693 -0.3722
    1ACE      C    5   9.225  10.725   3.466  0.5957  0.1986 -0.2673
    1ACE      O    6   9.317  10.756   3.386 -0.0591 -0.4424  0.5809
    2ALA      N    7   9.173  10.821   3.547 -0.2647 -0.7374 -0.1272
    2ALA      H    8   9.101  10.796   3.614 -0.6056  0.0584 -0.1864
    2ALA     CA    9   9.218  10.956   3.548 -0.8161 -0.2340 -0.1996
    2ALA     HA   10   9.243  10.986   3.446  0.1981 -1.6452 -0.4079
    2ALA     CB   11   9.101  11.048   3.581 -0.1973  0.6982 -0.0411
    2ALA    HB1   12   9.121  11.154   3.567 -0.4367  0.6015 -1.2871
    2ALA    HB2   13   9.025  11.025   3.507 -0.0716  0.0260  0.0334
    2ALA    HB3   14   9.064  11.023   3.680 -1.6791  1.1484 -0.4611
    2ALA      C   15   9.348  10.982   3.644 -0.1616  0.1635  0.3870
    2ALA      O   16   9.373  10.897   3.725  0.0403  0.3164 -0.2935
    3ALA      N   17   9.424  11.092   3.637 -0.0830  0.2026 -0.0249
    3ALA      H   18   9.494  11.106   3.709 -0.9796  0.5655  0.8138
    3ALA     CA   19   9.432  11.192   3.533 -0.1433 -0.2536 -0.1844
    3ALA     HA   20   9.329  11.225   3.535 -0.0236  0.2662 -1.3625
    3ALA     CB   21   9.534  11.309   3.562 -0.3406 -0.2231 -0.4247
    3ALA    HB1   22   9.507  11.361   3.654  2.1129 -0.3241  0.3956
    3ALA    HB2   23   9.630  11.258   3.572 -0.9285 -1.2536  0.0944
    3ALA    HB3   24   9.527  11.376   3.476  0.6651  0.4164 -0.0190
    3ALA      C   25   9.449  11.126   3.394  0.7392  0.3119  0.8006
    3ALA      O   26   9.392  11.177   3.298  0.2939  0.0592  0.1455
    4ALA      N   27   9.522  11.017   3.382  0.3834  0.6612  0.4356
    4ALA      H   28   9.580  10.991   3.461  1.0273  1.9911  0.4373
    4ALA     CA   29   9.556  10.935   3.264  0.2199 -0.1468  0.7227
    4ALA     HA   30   9.456  10.926   3.220  0.0754 -0.8293  1.1864
    4ALA     CB   31   9.644  11.018   3.171  0.0620  0.2213 -0.9183
    4ALA    HB1   32   9.586  11.098   3.125 -0.2825  0.0464 -0.7997
    4ALA    HB2   33   9.730  11.051   3.229  0.2362 -1.1135 -0.3665
    4ALA    HB3   34   9.687  10.964   3.087 -1.6194 -2.0982 -0.3776
    4ALA      C   35   9.627  10.803   3.296  0.2516 -0.1197  0.7171
    4ALA      O   36   9.735  10.813   3.348  0.0154  0.4386  0.8797
    5NME      N   37   9.569  10.689   3.264  0.5063  0.3960 -0.0975
    5NME      H   38   9.471  10.692   3.237  0.1107 -1.5514  0.9077
    5NME    CH3   39   9.632  10.566   3.261  0.1148 -0.0529 -0.6009
    5NME   HH31   40   9.563  10.512   3.325  0.3355 -0.3681 -0.6291
    5NME   HH32   41   9.638  10.522   3.161 -1.4123 -1.4650 -0.1165
    5NME   HH33   42   9.731  10.572   3.306  0.7938  0.7679 -2.1217
  20.91516  20.91516  20.91516
