Protein
   32
    1ACE   HH31    1   9.825  11.226  15.813 -1.4636  0.3788  2.1388
    1ACE    CH3    2   9.878  11.147  15.866 -0.1463 -0.3205 -0.0699
    1ACE   HH32    3   9.958  11.107  15.804  2.0317  2.3553  0.8718
    1ACE   HH33    4   9.803  11.073  15.896 -1.4102  0.6554 -0.7771
    1ACE      C    5   9.950  11.189  15.995  0.8742 -0.0114  0.3538
    1ACE      O    6   9.943  11.118  16.092  0.4197 -0.0270 -0.0011
    2ALA      N    7  10.008  11.310  15.992  0.0836 -0.2531 -0.4002
    2ALA      H    8  10.001  11.367  15.909 -1.5481 -2.3894 -1.8155
    2ALA     CA    9  10.069  11.364  16.119 -0.1266 -0.8796 -0.3372
    2ALA     HA   10  10.133  11.288  16.161 -0.3548 -1.6025 -1.2573
    2ALA     CB   11  10.149  11.487  16.079 -0.0616 -0.0164  0.5434
    2ALA    HB1   12  10.082  11.567  16.046  0.6896  0.7743  0.9046
    2ALA    HB2   13  10.209  11.522  16.163 -0.4435  1.6702  0.1356
    2ALA    HB3   14  10.218  11.462  15.999  1.4575 -0.7467  2.0256
    2ALA      C   15   9.967  11.400  16.227 -0.9736 -0.0276 -0.1933
    2ALA      O   16   9.862  11.451  16.193  0.5563 -0.0780 -0.5496
    3ALA      N   17   9.999  11.361  16.355 -0.4086  0.2476  0.4700
    3ALA      H   18  10.083  11.310  16.377  2.3242  3.4522 -1.4011
    3ALA     CA   19   9.903  11.388  16.459 -0.3630  0.2871 -0.5367
    3ALA     HA   20   9.946  11.341  16.548 -0.3725  0.0501 -0.6596
    3ALA     CB   21   9.896  11.542  16.489 -0.0205 -0.3048  0.5616
    3ALA    HB1   22   9.860  11.600  16.404 -0.7022  0.2441  1.2168
    3ALA    HB2   23   9.827  11.554  16.572 -1.5079  0.9450 -0.7938
    3ALA    HB3   24   9.992  11.583  16.522 -0.2461  1.8395 -1.2029
    3ALA      C   25   9.769  11.325  16.436 -0.4375 -0.4295  0.5407
    3ALA      O   26   9.665  11.361  16.500  0.0080  0.7886 -0.0180
    4NME      N   27   9.750  11.233  16.339  0.2528  0.2994  0.1189
    4NME      H   28   9.829  11.204  16.284  0.4334  0.6390  0.1941
    4NME    CH3   29   9.626  11.155  16.312 -0.5072 -0.1620 -0.3792
    4NME   HH31   30   9.629  11.110  16.213 -1.2701 -1.0127 -0.0308
    4NME   HH32   31   9.614  11.072  16.381 -0.3393  0.4536  0.4023
    4NME   HH33   32   9.539  11.221  16.324 -1.3597 -1.3087 -0.1120
  20.99041  20.99041  20.99041
