Protein
   42
    1ACE   HH31    1  11.398   5.582   3.980  0.8157  1.0120  1.0874
    1ACE    CH3    2  11.475   5.550   3.910 -0.1005 -0.3517  0.6480
    1ACE   HH32    3  11.440   5.538   3.808  2.6585 -0.5125 -0.3664
    1ACE   HH33    4  11.519   5.460   3.952  0.5374 -1.6193 -2.4971
    1ACE      C    5  11.581   5.656   3.907 -0.1606  0.5628 -0.6077
    1ACE      O    6  11.694   5.622   3.929  0.4657  0.6468 -0.1572
    2ALA      N    7  11.542   5.774   3.865 -0.8183 -0.2733  0.1977
    2ALA      H    8  11.446   5.785   3.834 -1.6564 -0.1860  2.6029
    2ALA     CA    9  11.624   5.895   3.856 -0.2807 -0.2134 -0.6388
    2ALA     HA   10  11.653   5.908   3.752  0.9031 -0.5040 -0.3586
    2ALA     CB   11  11.532   6.012   3.890 -0.0271 -0.3527 -0.3064
    2ALA    HB1   12  11.444   6.021   3.826 -2.0433 -0.2650  2.3326
    2ALA    HB2   13  11.503   6.009   3.995  1.0281 -1.5491 -0.0208
    2ALA    HB3   14  11.587   6.106   3.886 -1.1400  0.3134 -1.2199
    2ALA      C   15  11.748   5.894   3.940  0.4811  0.4871 -0.6776
    2ALA      O   16  11.743   5.937   4.056  0.7063  0.4874 -0.1410
    3ALA      N   17  11.868   5.865   3.886 -0.5835  0.0608 -0.3898
    3ALA      H   18  11.948   5.896   3.940 -0.6340  3.0090 -1.8125
    3ALA     CA   19  11.897   5.795   3.762 -0.3804  0.7113  0.6410
    3ALA     HA   20  11.805   5.758   3.715 -0.6649 -3.3143  3.7455
    3ALA     CB   21  11.977   5.877   3.664 -0.0336 -0.1252 -0.1644
    3ALA    HB1   22  11.955   5.983   3.654 -1.5562 -0.3685  0.2786
    3ALA    HB2   23  12.077   5.870   3.708 -0.6623 -0.3759  1.2940
    3ALA    HB3   24  11.974   5.823   3.569 -0.1639  0.3832 -0.4473
    3ALA      C   25  11.967   5.663   3.792  0.1799 -0.3895 -0.3991
    3ALA      O   26  12.005   5.592   3.699  0.4937 -0.2890  0.1843
    4ALA      N   27  11.990   5.620   3.920  0.6502  0.4815 -0.2708
    4ALA      H   28  11.942   5.671   3.992  0.8093  1.5761 -0.9063
    4ALA     CA   29  12.054   5.497   3.954  0.5827  1.2395  0.3735
    4ALA     HA   30  12.154   5.511   3.913  0.0376  0.8731 -1.1081
    4ALA     CB   31  12.068   5.475   4.110  0.4793  0.2154  1.2540
    4ALA    HB1   32  11.968   5.468   4.154  1.0286 -1.7178  2.3059
    4ALA    HB2   33  12.109   5.374   4.121 -1.0524 -1.2427 -3.6084
    4ALA    HB3   34  12.127   5.549   4.162  2.5231  0.1785 -0.8306
    4ALA      C   35  11.991   5.368   3.894  0.1059 -0.0248  0.0611
    4ALA      O   36  12.058   5.266   3.873 -0.0453 -0.0125 -0.3100
    5NME      N   37  11.855   5.372   3.901  0.6527 -0.4810  0.1612
    5NME      H   38  11.820   5.465   3.920 -0.7420 -0.7417 -0.9786
    5NME    CH3   39  11.767   5.272   3.851 -0.0552  0.1831 -0.8978
    5NME   HH31   40  11.775   5.188   3.919 -0.5499  1.1898  0.4499
    5NME   HH32   41  11.662   5.302   3.855  0.1231  1.7321 -4.3147
    5NME   HH33   42  11.791   5.244   3.748 -0.1631  0.3886 -0.9790
  20.91516  20.91516  20.91516
