Protein
   42
    1ACE   HH31    1  13.364  10.559   5.594 -0.3871 -1.9508  1.7239
    1ACE    CH3    2  13.471  10.543   5.584 -0.2303 -0.1198 -0.4281
    1ACE   HH32    3  13.496  10.487   5.674  1.1562 -0.5552 -1.0644
    1ACE   HH33    4  13.516  10.642   5.573 -1.8424  0.7249  0.1063
    1ACE      C    5  13.489  10.463   5.462 -0.3534  0.2789  0.3688
    1ACE      O    6  13.393  10.439   5.387  0.0663 -0.3344  0.2289
    2ALA      N    7  13.607  10.403   5.447  0.5421 -1.1298  0.3449
    2ALA      H    8  13.682  10.421   5.511  1.4587 -3.7319  0.1219
    2ALA     CA    9  13.643  10.310   5.334  0.0567 -0.2951  0.5656
    2ALA     HA   10  13.745  10.334   5.301  0.1448 -2.8532 -1.3237
    2ALA     CB   11  13.639  10.162   5.387 -0.1454 -0.6154 -0.2161
    2ALA    HB1   12  13.539  10.123   5.401 -0.4898  0.1947 -0.3961
    2ALA    HB2   13  13.692  10.100   5.315 -0.7104 -1.0415 -0.2614
    2ALA    HB3   14  13.697  10.167   5.480 -0.8717  0.3839  0.2065
    2ALA      C   15  13.563  10.350   5.205 -0.4172  0.9245  0.0357
    2ALA      O   16  13.601  10.440   5.141 -0.5055  0.1051 -0.2034
    3ALA      N   17  13.464  10.261   5.169  0.0113 -0.0118 -0.0495
    3ALA      H   18  13.459  10.183   5.232 -0.0873  0.3600  0.4063
    3ALA     CA   19  13.364  10.274   5.066  0.0403 -0.2787 -0.4241
    3ALA     HA   20  13.409  10.225   4.979  1.7423  0.9413 -0.2582
    3ALA     CB   21  13.246  10.189   5.108 -1.0680  0.4144  0.3631
    3ALA    HB1   22  13.218  10.208   5.212  0.6659  0.7425  0.8037
    3ALA    HB2   23  13.162  10.198   5.039 -1.4776 -0.2273  0.7715
    3ALA    HB3   24  13.274  10.085   5.095 -0.8076  0.2308  2.1446
    3ALA      C   25  13.319  10.418   5.027  0.6133 -0.3159 -0.3385
    3ALA      O   26  13.297  10.446   4.912 -0.8146 -0.0289  0.4126
    4ALA      N   27  13.305  10.512   5.120 -0.3971  0.0455 -0.1484
    4ALA      H   28  13.328  10.477   5.212 -1.0958 -0.7315 -0.2660
    4ALA     CA   29  13.256  10.648   5.099 -0.0297  0.6178 -0.2673
    4ALA     HA   30  13.160  10.638   5.048 -0.4781  1.0547  0.4851
    4ALA     CB   31  13.233  10.708   5.238  0.0223  0.1328  1.4284
    4ALA    HB1   32  13.175  10.640   5.301  0.8227  0.5943  2.7144
    4ALA    HB2   33  13.328  10.731   5.285  0.6582  2.8778 -0.9441
    4ALA    HB3   34  13.171  10.798   5.239 -0.8824 -0.4765  1.9252
    4ALA      C   35  13.334  10.745   5.012 -0.8907 -0.0834 -0.4859
    4ALA      O   36  13.286  10.858   4.995  0.1929  0.4947 -0.8096
    5NME      N   37  13.456  10.712   4.964 -0.2807 -0.1275  0.4598
    5NME      H   38  13.492  10.619   4.980  0.9004  0.4175  1.1517
    5NME    CH3   39  13.539  10.810   4.891  0.2823  0.3107 -0.1831
    5NME   HH31   40  13.593  10.757   4.813 -1.4589  0.3461 -1.4834
    5NME   HH32   41  13.483  10.890   4.842  3.2141  2.5078 -0.2344
    5NME   HH33   42  13.608  10.848   4.966 -1.2157 -1.3043  2.1438
  20.91516  20.91516  20.91516
