Protein
   32
    1ACE   HH31    1  10.247   8.184   5.876  0.5450  0.7554 -0.0065
    1ACE    CH3    2  10.315   8.128   5.940  0.1929 -0.1129 -0.3658
    1ACE   HH32    3  10.311   8.163   6.043 -0.2188 -2.2073  0.3806
    1ACE   HH33    4  10.418   8.133   5.905  1.2615  0.8535  2.6819
    1ACE      C    5  10.267   7.988   5.944 -0.1375 -0.2722 -0.4150
    1ACE      O    6  10.165   7.955   5.884  0.1549 -0.4593 -0.2189
    2ALA      N    7  10.322   7.893   6.015  0.2359  0.2655  0.1054
    2ALA      H    8  10.396   7.911   6.081 -2.0783 -0.4121  3.1307
    2ALA     CA    9  10.269   7.749   6.037 -0.3057 -0.1716  0.2115
    2ALA     HA   10  10.231   7.694   5.951  0.2058 -0.1262 -0.0463
    2ALA     CB   11  10.379   7.656   6.081 -0.4276 -0.7086 -0.5073
    2ALA    HB1   12  10.367   7.557   6.037  0.5359  0.2913 -3.2313
    2ALA    HB2   13  10.475   7.695   6.048  0.1749  0.8368  2.6638
    2ALA    HB3   14  10.391   7.662   6.190 -4.0402  0.4967 -0.0229
    2ALA      C   15  10.156   7.743   6.136  0.3600 -0.4258  0.2317
    2ALA      O   16  10.149   7.824   6.232 -0.3238  0.0498 -0.1116
    3ALA      N   17  10.068   7.645   6.105  0.0898 -0.8972 -0.2867
    3ALA      H   18  10.086   7.583   6.027  0.7699 -1.2064  0.1049
    3ALA     CA   19   9.949   7.614   6.179 -0.4262  0.2749  0.2448
    3ALA     HA   20   9.910   7.532   6.118  2.6725 -0.2092 -1.3429
    3ALA     CB   21   9.992   7.557   6.319 -0.8672 -0.0535 -0.1311
    3ALA    HB1   22  10.028   7.629   6.392  1.1484 -1.9704  0.8559
    3ALA    HB2   23   9.906   7.521   6.375 -0.6395  0.2107  0.4067
    3ALA    HB3   24  10.075   7.487   6.308  0.8777  1.6386  1.5589
    3ALA      C   25   9.838   7.723   6.183  0.1204 -0.1183  0.2754
    3ALA      O   26   9.760   7.725   6.275 -0.3557 -0.5836 -0.4128
    4NME      N   27   9.817   7.802   6.079 -0.7175 -0.6000  0.5133
    4NME      H   28   9.878   7.788   6.000 -3.0787 -3.9909 -0.9587
    4NME    CH3   29   9.734   7.916   6.056  0.1348 -0.7548 -0.3995
    4NME   HH31   30   9.683   7.938   6.150 -0.1820  1.0883 -0.9638
    4NME   HH32   31   9.797   7.999   6.023 -1.2929  1.1206  1.2901
    4NME   HH33   32   9.660   7.889   5.979 -1.9872 -0.0661  1.2595
  20.99041  20.99041  20.99041
