Protein
   42
    1ACE   HH31    1   6.765  16.369   6.642  2.6397  2.3477 -2.2007
    1ACE    CH3    2   6.781  16.425   6.734 -0.5476  0.1247 -0.0771
    1ACE   HH32    3   6.813  16.526   6.712 -0.3124 -0.1941 -1.2859
    1ACE   HH33    4   6.854  16.381   6.802 -1.4946  0.3001  1.0774
    1ACE      C    5   6.651  16.425   6.816 -0.6665 -0.9112 -0.0175
    1ACE      O    6   6.554  16.366   6.782  0.3448 -0.4793  0.0243
    2ALA      N    7   6.649  16.499   6.926 -0.1850 -0.2537 -0.6558
    2ALA      H    8   6.712  16.577   6.940 -1.7619  1.0968 -0.8023
    2ALA     CA    9   6.542  16.500   7.026 -0.5013 -0.0916 -0.2044
    2ALA     HA   10   6.459  16.446   6.980  1.4684 -2.2718 -1.4639
    2ALA     CB   11   6.589  16.435   7.151  0.5942  0.5400 -0.8252
    2ALA    HB1   12   6.686  16.478   7.177 -0.4333  2.0873  0.6992
    2ALA    HB2   13   6.521  16.449   7.235  1.9675 -0.5248  0.5327
    2ALA    HB3   14   6.580  16.326   7.142 -0.2001  0.4055  1.0326
    2ALA      C   15   6.500  16.644   7.045 -0.1527  0.2139  0.0347
    2ALA      O   16   6.582  16.736   7.056  0.0519 -0.4323 -0.0213
    3ALA      N   17   6.374  16.685   7.026 -0.8197 -0.0863 -0.5452
    3ALA      H   18   6.378  16.782   6.999 -0.9787  0.0672 -0.0338
    3ALA     CA   19   6.242  16.616   7.014 -0.0219 -0.2210  0.0005
    3ALA     HA   20   6.173  16.670   7.079  0.7559 -1.7654  2.2297
    3ALA     CB   21   6.203  16.641   6.866  0.6097  0.2823 -0.2953
    3ALA    HB1   22   6.283  16.607   6.801 -0.1823  3.2775 -3.0811
    3ALA    HB2   23   6.113  16.585   6.839  0.6180  0.1266 -0.0134
    3ALA    HB3   24   6.186  16.744   6.836  0.1835 -0.5857 -3.3236
    3ALA      C   25   6.229  16.468   7.068  0.2910 -0.2978  0.4968
    3ALA      O   26   6.204  16.456   7.190 -0.3596  0.2339  0.3348
    4ALA      N   27   6.227  16.375   6.972 -0.4420  0.2541 -0.0426
    4ALA      H   28   6.243  16.419   6.882  0.0631  0.5967  0.2107
    4ALA     CA   29   6.188  16.234   6.986  0.1580  0.1904 -0.6994
    4ALA     HA   30   6.197  16.197   6.884  3.0618  1.1688 -0.9245
    4ALA     CB   31   6.298  16.172   7.061  0.0531  1.1203  0.2023
    4ALA    HB1   32   6.287  16.198   7.166  1.7788  1.8742  0.2397
    4ALA    HB2   33   6.306  16.063   7.051  2.1239  1.3901 -2.1873
    4ALA    HB3   34   6.393  16.210   7.024 -0.1783  0.6910 -0.8725
    4ALA      C   35   6.049  16.201   7.037 -0.9199 -0.2712  0.3642
    4ALA      O   36   5.972  16.126   6.971 -0.2037  0.6766  0.0107
    5NME      N   37   6.013  16.260   7.151  0.0286  0.3867 -0.5458
    5NME      H   38   6.076  16.328   7.191  0.6853  0.1248 -1.1113
    5NME    CH3   39   5.886  16.227   7.213  0.4964 -0.4577 -0.3772
    5NME   HH31   40   5.874  16.119   7.208  2.1151 -0.6972 -0.0435
    5NME   HH32   41   5.883  16.265   7.315  1.5806 -1.0945 -0.0803
    5NME   HH33   42   5.811  16.265   7.144 -0.7015 -1.0078  0.5916
  20.91516  20.91516  20.91516
