Protein
   32
    1ACE   HH31    1  11.880  11.311   7.872  0.0175 -1.2838 -1.1046
    1ACE    CH3    2  11.964  11.373   7.841 -0.2382 -0.1652  0.3265
    1ACE   HH32    3  11.987  11.453   7.912 -0.3395 -0.3548  0.5755
    1ACE   HH33    4  11.942  11.417   7.744 -1.2952  0.5609  0.8805
    1ACE      C    5  12.077  11.283   7.829  0.3127 -0.0995 -0.5712
    1ACE      O    6  12.107  11.241   7.721  0.0269  0.1294 -0.9871
    2ALA      N    7  12.143  11.263   7.943  0.5837 -0.2324 -0.2338
    2ALA      H    8  12.101  11.316   8.018 -0.4402 -1.1819 -0.1025
    2ALA     CA    9  12.236  11.158   7.985 -0.8044  0.2982 -0.0489
    2ALA     HA   10  12.276  11.184   8.083 -0.8013  2.6484 -0.6379
    2ALA     CB   11  12.159  11.020   7.997 -0.0650 -0.4551  0.0469
    2ALA    HB1   12  12.219  10.948   8.052 -1.0450 -1.3212  0.0223
    2ALA    HB2   13  12.067  11.029   8.055  0.3978  1.2451  0.5650
    2ALA    HB3   14  12.122  10.980   7.903  0.4732 -2.2633  0.5529
    2ALA      C   15  12.368  11.142   7.900  0.3477 -0.9281 -0.0857
    2ALA      O   16  12.470  11.105   7.955  0.3090  0.7074 -0.3783
    3ALA      N   17  12.369  11.188   7.776 -0.8492  0.3151  0.4454
    3ALA      H   18  12.283  11.228   7.742 -0.5202  0.5332 -0.1513
    3ALA     CA   19  12.476  11.167   7.672  0.7531 -0.0767 -1.0795
    3ALA     HA   20  12.567  11.222   7.694  0.6029  0.4666 -1.7679
    3ALA     CB   21  12.512  11.019   7.673  0.1650 -0.7839 -0.7048
    3ALA    HB1   22  12.567  11.007   7.579 -0.0253  0.0838 -0.9494
    3ALA    HB2   23  12.572  10.999   7.761 -0.8356 -0.4158  0.0732
    3ALA    HB3   24  12.418  10.964   7.671 -2.6344  3.4254  0.8328
    3ALA      C   25  12.444  11.223   7.532  0.0715 -0.8872  0.4736
    3ALA      O   26  12.537  11.257   7.460  0.5186  0.0245 -0.7787
    4NME      N   27  12.313  11.251   7.506  0.0804 -0.0014 -0.7506
    4NME      H   28  12.244  11.218   7.572  0.3587  1.0141  0.0710
    4NME    CH3   29  12.264  11.298   7.374  0.9199  0.2481 -0.4248
    4NME   HH31   30  12.345  11.298   7.301  0.0299  0.3733 -1.4395
    4NME   HH32   31  12.173  11.244   7.349 -0.4281 -0.0396  4.1616
    4NME   HH33   32  12.238  11.404   7.376  0.4450  0.1306  1.1077
  20.99041  20.99041  20.99041
