Protein
   42
    1ACE   HH31    1  14.187  11.238  15.316  0.6520 -0.2762  0.2982
    1ACE    CH3    2  14.191  11.311  15.235  0.3383 -0.2913  0.2677
    1ACE   HH32    3  14.122  11.284  15.156 -0.0227  1.8696 -0.2383
    1ACE   HH33    4  14.293  11.315  15.196 -0.2673  0.2101 -1.3060
    1ACE      C    5  14.153  11.445  15.293 -0.2125  0.2760 -0.2015
    1ACE      O    6  14.143  11.465  15.416  0.4397  0.2968 -0.2566
    2ALA      N    7  14.135  11.548  15.208  0.5370 -0.0044 -0.0638
    2ALA      H    8  14.158  11.531  15.111 -1.2727 -0.5068 -0.4486
    2ALA     CA    9  14.103  11.691  15.232  0.5580 -0.2881 -0.1896
    2ALA     HA   10  14.103  11.741  15.136 -0.9320 -2.1159 -1.2198
    2ALA     CB   11  13.958  11.699  15.276  0.4542 -0.0069  0.5337
    2ALA    HB1   12  13.896  11.666  15.193  1.0856  1.4225 -0.5454
    2ALA    HB2   13  13.935  11.637  15.363  0.1406  1.1126  1.2706
    2ALA    HB3   14  13.934  11.804  15.292  1.5006  0.1766  1.0750
    2ALA      C   15  14.188  11.778  15.330  0.6404  1.6534  0.0212
    2ALA      O   16  14.183  11.899  15.328  0.0777 -0.3170  0.2376
    3ALA      N   17  14.272  11.710  15.408  1.0060 -0.7781 -0.0553
    3ALA      H   18  14.267  11.609  15.396  0.5319 -0.7307 -0.3015
    3ALA     CA   19  14.339  11.762  15.528 -1.0025 -0.2926 -0.0654
    3ALA     HA   20  14.402  11.848  15.506 -1.6428  0.5078  1.1182
    3ALA     CB   21  14.233  11.820  15.631  0.4885  0.7155 -0.1569
    3ALA    HB1   22  14.172  11.733  15.654  2.0739 -0.6703 -0.9342
    3ALA    HB2   23  14.276  11.856  15.724  1.9535  0.1911 -0.6030
    3ALA    HB3   24  14.171  11.901  15.594 -0.7413 -0.0176  0.2388
    3ALA      C   25  14.428  11.653  15.598  0.1822 -0.0336 -0.3637
    3ALA      O   26  14.505  11.695  15.683  0.0076  0.3732 -0.1306
    4ALA      N   27  14.417  11.522  15.558  0.1817 -0.7989  0.4094
    4ALA      H   28  14.354  11.499  15.483 -0.8132  0.1874  0.9218
    4ALA     CA   29  14.497  11.414  15.602 -0.0784 -1.0062  0.2969
    4ALA     HA   30  14.576  11.457  15.662 -0.6338  0.9705 -0.3325
    4ALA     CB   31  14.414  11.313  15.691 -0.8420 -0.4890  0.6274
    4ALA    HB1   32  14.327  11.273  15.638 -0.7852  0.6302 -0.3415
    4ALA    HB2   33  14.479  11.230  15.719 -0.2094 -0.6346 -1.1839
    4ALA    HB3   34  14.383  11.368  15.780 -0.2136 -1.1725  1.2838
    4ALA      C   35  14.559  11.341  15.482  0.2011 -0.0226 -0.1035
    4ALA      O   36  14.500  11.334  15.372  0.6542 -0.6169 -0.3150
    5NME      N   37  14.681  11.297  15.492 -0.1664  0.2667 -0.1273
    5NME      H   38  14.722  11.287  15.584  1.4834  2.5572 -0.5299
    5NME    CH3   39  14.744  11.220  15.384  0.0202 -0.0748 -0.2795
    5NME   HH31   40  14.697  11.125  15.356  1.3881 -0.7297 -0.4525
    5NME   HH32   41  14.752  11.282  15.296 -2.5353 -0.0972 -0.5885
    5NME   HH33   42  14.841  11.182  15.417  0.2487  0.1668 -0.6799
  20.91516  20.91516  20.91516
