Protein
   32
    1ACE   HH31    1   8.977  12.684  10.035 -1.8311  2.1080  2.4863
    1ACE    CH3    2   8.907  12.603  10.014  0.4547  0.5957 -0.0253
    1ACE   HH32    3   8.899  12.587   9.906  1.6270 -1.1293  0.0930
    1ACE   HH33    4   8.815  12.635  10.064  1.8965  2.4070  1.5982
    1ACE      C    5   8.963  12.483  10.085 -0.1662 -0.1623  0.5166
    1ACE      O    6   8.883  12.400  10.127  0.2718  0.8517  0.1735
    2ALA      N    7   9.093  12.464  10.088 -0.6134  1.0119  0.3245
    2ALA      H    8   9.155  12.535  10.052  0.8000 -0.6565 -0.7622
    2ALA     CA    9   9.159  12.344  10.151  0.0449  0.2270  0.0991
    2ALA     HA   10   9.136  12.254  10.094  4.0899 -0.9327 -0.0475
    2ALA     CB   11   9.312  12.361  10.129 -0.0721 -0.0868  0.3095
    2ALA    HB1   12   9.364  12.283  10.184 -0.2011 -1.2633 -1.1821
    2ALA    HB2   13   9.342  12.344  10.025 -1.8036 -0.7751 -0.1433
    2ALA    HB3   14   9.341  12.461  10.157 -0.5144  0.4399 -1.0078
    2ALA      C   15   9.117  12.325  10.299  0.2869 -0.5727  0.0092
    2ALA      O   16   9.100  12.417  10.374  0.2883 -0.4314 -0.1618
    3ALA      N   17   9.129  12.205  10.347 -0.7513  0.3633 -0.2894
    3ALA      H   18   9.152  12.130  10.284 -0.2812 -0.4453  0.8247
    3ALA     CA   19   9.111  12.165  10.494  0.3082 -0.8555 -1.2103
    3ALA     HA   20   9.020  12.220  10.519  1.1965  0.5466 -0.9263
    3ALA     CB   21   9.072  12.014  10.490 -0.2702  0.0691  0.2524
    3ALA    HB1   22   8.999  11.997  10.412 -0.4828  0.4797  0.3598
    3ALA    HB2   23   9.152  11.945  10.463 -0.1096  0.6680 -0.8502
    3ALA    HB3   24   9.027  11.985  10.585 -1.5745 -0.0856 -0.3961
    3ALA      C   25   9.225  12.202  10.592  0.2022  0.5777  0.4007
    3ALA      O   26   9.225  12.149  10.702 -0.1681  0.8595  0.0934
    4NME      N   27   9.320  12.290  10.548  0.1540  0.7654 -0.4403
    4NME      H   28   9.285  12.337  10.466 -1.3594 -1.3971 -1.1345
    4NME    CH3   29   9.432  12.342  10.621 -0.3344  0.2292 -0.9648
    4NME   HH31   30   9.530  12.333  10.574  1.2999  1.5323  2.0085
    4NME   HH32   31   9.426  12.448  10.646 -0.7684  0.5353 -2.2309
    4NME   HH33   32   9.435  12.273  10.705  1.8891 -2.9843 -3.4451
  20.99041  20.99041  20.99041
