Protein
   32
    1ACE   HH31    1   9.656   8.020   3.513  0.6807 -1.1370 -1.4721
    1ACE    CH3    2   9.647   7.918   3.552  0.6075 -0.2971  0.8502
    1ACE   HH32    3   9.753   7.891   3.549  0.3593 -1.2700  0.6734
    1ACE   HH33    4   9.588   7.859   3.482  1.3056  0.2287 -0.2248
    1ACE      C    5   9.602   7.886   3.698  0.6867 -0.5917 -0.5409
    1ACE      O    6   9.679   7.900   3.792 -0.4550 -0.5527 -0.6328
    2ALA      N    7   9.493   7.806   3.700 -0.4728 -0.0300 -0.2208
    2ALA      H    8   9.465   7.784   3.606  1.4578 -3.0522 -0.2037
    2ALA     CA    9   9.422   7.740   3.806 -0.0518 -0.8049  0.4796
    2ALA     HA   10   9.316   7.759   3.794 -0.3453 -2.4857  0.1463
    2ALA     CB   11   9.442   7.592   3.779  0.0456  0.3398 -0.2398
    2ALA    HB1   12   9.543   7.568   3.747  0.5058 -0.5277  1.6757
    2ALA    HB2   13   9.420   7.533   3.868 -1.0778  4.3298  2.3313
    2ALA    HB3   14   9.379   7.560   3.696  1.0979 -2.0859 -0.2169
    2ALA      C   15   9.441   7.772   3.953  0.7493  0.1800 -0.3177
    2ALA      O   16   9.341   7.809   4.018 -0.2041 -0.3516 -0.2192
    3ALA      N   17   9.556   7.772   4.011 -0.2617 -0.6246  0.1894
    3ALA      H   18   9.632   7.765   3.945  0.3576 -2.3083  1.0105
    3ALA     CA   19   9.584   7.780   4.150  0.0406  0.0140 -0.9515
    3ALA     HA   20   9.486   7.779   4.197 -0.3128 -2.8838 -1.5514
    3ALA     CB   21   9.681   7.667   4.187 -0.1987 -0.5521  0.0343
    3ALA    HB1   22   9.628   7.572   4.181 -0.7656 -0.4168  2.0050
    3ALA    HB2   23   9.772   7.670   4.128  0.8489  1.1922  1.5900
    3ALA    HB3   24   9.707   7.687   4.291  0.2719  0.1139 -0.2028
    3ALA      C   25   9.635   7.918   4.192 -0.9446 -0.4689  0.9212
    3ALA      O   26   9.621   7.952   4.310 -0.4191 -0.2034 -0.2363
    4NME      N   27   9.686   7.999   4.088 -0.3441  0.2562 -0.0283
    4NME      H   28   9.700   7.956   3.998  0.8034  0.5207  0.0042
    4NME    CH3   29   9.721   8.140   4.103  0.6166 -0.3235 -0.2945
    4NME   HH31   30   9.678   8.181   4.194  0.5545  0.2021 -0.5599
    4NME   HH32   31   9.830   8.150   4.095  0.3477  2.8713 -1.4538
    4NME   HH33   32   9.680   8.205   4.026 -0.1392 -0.7519 -0.2647
  20.99041  20.99041  20.99041
