Protein
   42
    1ACE   HH31    1  13.428  12.985  10.252  0.2035  0.0047  0.0555
    1ACE    CH3    2  13.467  13.048  10.172 -0.3252 -0.6138 -0.6953
    1ACE   HH32    3  13.389  13.048  10.096  0.2709 -0.5639 -1.3295
    1ACE   HH33    4  13.549  12.986  10.134 -0.8927 -1.2876 -0.8523
    1ACE      C    5  13.523  13.187  10.219 -0.5788  0.0376  0.3168
    1ACE      O    6  13.448  13.284  10.218  0.6573 -0.1566  0.2797
    2ALA      N    7  13.650  13.190  10.266 -0.0604 -0.0182  0.2175
    2ALA      H    8  13.700  13.103  10.269  0.5054  0.1860 -1.6327
    2ALA     CA    9  13.716  13.311  10.324  0.0122  0.0448  0.9395
    2ALA     HA   10  13.818  13.285  10.350  0.3972  1.4784  0.9138
    2ALA     CB   11  13.738  13.417  10.210  0.6971 -0.8365 -0.3363
    2ALA    HB1   12  13.650  13.437  10.150  2.5455 -0.1970 -3.0115
    2ALA    HB2   13  13.780  13.511  10.247  0.3506  0.0349 -2.0573
    2ALA    HB3   14  13.807  13.373  10.139  1.8610 -1.0992  0.8957
    2ALA      C   15  13.660  13.361  10.462  0.4439 -0.7206  0.3053
    2ALA      O   16  13.731  13.376  10.558 -0.7949 -0.2012  0.2212
    3ALA      N   17  13.529  13.388  10.467 -0.1135  0.1659  0.3045
    3ALA      H   18  13.483  13.386  10.377 -0.1826  3.1588  0.1727
    3ALA     CA   19  13.450  13.459  10.576 -0.0725  0.3126  0.0812
    3ALA     HA   20  13.362  13.490  10.520  0.0569  1.8567  0.7115
    3ALA     CB   21  13.419  13.358  10.697  0.0035  0.1321  0.7776
    3ALA    HB1   22  13.406  13.260  10.651  0.8288 -0.2631  1.3774
    3ALA    HB2   23  13.513  13.349  10.751  1.0618  1.9852 -0.5892
    3ALA    HB3   24  13.337  13.383  10.764 -0.6386 -0.3370  0.1791
    3ALA      C   25  13.511  13.589  10.623  0.3547  0.4171 -0.3229
    3ALA      O   26  13.455  13.695  10.597 -0.1406 -0.0823 -0.1417
    4ALA      N   27  13.627  13.587  10.693  0.2762 -0.1942 -0.0076
    4ALA      H   28  13.667  13.495  10.706 -0.3608 -0.7133 -1.4682
    4ALA     CA   29  13.711  13.695  10.746  0.4163 -0.7521  0.3332
    4ALA     HA   30  13.798  13.648  10.792  0.7155  1.1455  1.8809
    4ALA     CB   31  13.761  13.785  10.628  0.1921 -0.1208 -0.3915
    4ALA    HB1   32  13.808  13.721  10.553 -1.4809 -0.8586 -0.8291
    4ALA    HB2   33  13.678  13.838  10.583  0.2037 -0.1477 -0.4450
    4ALA    HB3   34  13.837  13.856  10.659  0.1346 -0.1447 -0.1990
    4ALA      C   35  13.650  13.783  10.856 -0.7300 -0.4328 -0.7256
    4ALA      O   36  13.729  13.851  10.926  0.0652 -0.1472  0.0607
    5NME      N   37  13.518  13.788  10.873 -0.3614  1.0391 -0.0327
    5NME      H   38  13.463  13.725  10.817  1.2904 -1.2028  0.6638
    5NME    CH3   39  13.452  13.883  10.957  0.2141 -0.4080 -0.2943
    5NME   HH31   40  13.525  13.930  11.023  0.7222 -0.8564 -0.5143
    5NME   HH32   41  13.402  13.958  10.896 -0.7355  0.8615  1.9454
    5NME   HH33   42  13.381  13.834  11.023 -0.5540  0.5692 -0.3836
  20.91516  20.91516  20.91516
