Protein
   42
    1ACE   HH31    1   8.578  16.517  18.409 -2.6513  2.2211  0.6641
    1ACE    CH3    2   8.588  16.585  18.324 -0.5022  0.5781 -0.4893
    1ACE   HH32    3   8.642  16.669  18.370  2.3650 -0.9559 -0.8587
    1ACE   HH33    4   8.487  16.610  18.291 -0.5598  2.0203  0.6219
    1ACE      C    5   8.688  16.528  18.222  0.2191 -0.4867  0.4672
    1ACE      O    6   8.765  16.600  18.157 -0.3483 -0.1688 -0.2198
    2ALA      N    7   8.680  16.396  18.213 -0.2430  0.5611 -0.2702
    2ALA      H    8   8.609  16.352  18.270 -0.2485  1.6129  0.5698
    2ALA     CA    9   8.767  16.299  18.147 -0.0013  0.5991  0.4165
    2ALA     HA   10   8.752  16.206  18.201  0.9039 -0.8075 -1.6594
    2ALA     CB   11   8.709  16.267  18.007 -0.4089 -0.1144 -0.1884
    2ALA    HB1   12   8.701  16.359  17.949 -0.2813 -1.5322 -2.6051
    2ALA    HB2   13   8.778  16.201  17.955  0.4850  1.6613 -1.3655
    2ALA    HB3   14   8.608  16.228  18.009 -0.0707 -1.0434 -0.7430
    2ALA      C   15   8.919  16.333  18.141 -0.0831  0.6926  0.2524
    2ALA      O   16   8.985  16.301  18.244  0.1059  0.1941 -0.5600
    3ALA      N   17   8.975  16.397  18.038  0.2078 -0.1360 -0.6380
    3ALA      H   18   8.914  16.430  17.965 -0.5098  1.5457  0.6400
    3ALA     CA   19   9.113  16.453  18.029 -0.3004  0.6386  0.0243
    3ALA     HA   20   9.177  16.376  17.987 -2.6607 -0.4853 -1.7809
    3ALA     CB   21   9.108  16.556  17.915 -0.2721  0.4211  0.0973
    3ALA    HB1   22   9.036  16.627  17.957  0.7514  1.2821  0.4301
    3ALA    HB2   23   9.202  16.609  17.907  0.2599 -0.5676 -0.4153
    3ALA    HB3   24   9.077  16.516  17.818 -2.0474  0.3042  0.6496
    3ALA      C   25   9.173  16.519  18.153 -0.0839  0.0664 -0.5167
    3ALA      O   26   9.291  16.533  18.159 -1.1497 -0.2865  0.2012
    4ALA      N   27   9.088  16.556  18.253 -0.4274  0.5404 -0.3176
    4ALA      H   28   8.990  16.554  18.227 -0.2788 -0.0315 -0.8150
    4ALA     CA   29   9.127  16.616  18.386  0.0063 -0.1217  0.6342
    4ALA     HA   30   9.225  16.582  18.420  0.5021  1.2097  0.5584
    4ALA     CB   31   9.130  16.770  18.369  0.3383  0.4590  0.3846
    4ALA    HB1   32   9.028  16.804  18.352 -0.4056 -2.2149 -1.2296
    4ALA    HB2   33   9.171  16.809  18.462 -0.1228 -0.9709  1.2156
    4ALA    HB3   34   9.197  16.801  18.288  0.8119  1.3807  1.1191
    4ALA      C   35   9.024  16.583  18.500  0.9677 -0.4740 -0.8888
    4ALA      O   36   9.002  16.658  18.591  0.4884 -0.5238  0.2763
    5NME      N   37   8.956  16.466  18.485 -0.6688 -0.4107 -0.1780
    5NME      H   38   8.975  16.410  18.403  0.6228 -1.0238  0.5113
    5NME    CH3   39   8.871  16.401  18.584  0.1034  0.2875 -0.0753
    5NME   HH31   40   8.830  16.310  18.541  0.9514  0.1506 -0.6266
    5NME   HH32   41   8.933  16.354  18.661 -0.1468  0.4557  0.2296
    5NME   HH33   42   8.793  16.464  18.626  0.0175  0.5872 -0.6802
  20.91516  20.91516  20.91516
