Protein
   22
    1ACE   HH31    1   0.739   5.643   5.381  0.1845 -0.2632  0.0810
    1ACE    CH3    2   0.842   5.668   5.356  0.2361  0.1384  0.6652
    1ACE   HH32    3   0.914   5.629   5.428  0.3927  0.0730  0.4760
    1ACE   HH33    4   0.846   5.775   5.341  0.0395  0.3207  1.8689
    1ACE      C    5   0.865   5.601   5.218 -0.4798  0.4495 -1.0091
    1ACE      O    6   0.921   5.487   5.218  0.5208 -0.3362 -0.1719
    2ALA      N    7   0.841   5.671   5.107  0.5817  0.2671  0.0415
    2ALA      H    8   0.806   5.764   5.127 -0.1478  0.3410 -1.4313
    2ALA     CA    9   0.826   5.639   4.962 -0.9092 -0.3433 -0.2102
    2ALA     HA   10   0.911   5.690   4.917 -1.5386  1.9264  1.0079
    2ALA     CB   11   0.829   5.485   4.929 -0.0049 -0.4263 -0.0875
    2ALA    HB1   12   0.919   5.440   4.971 -1.1801 -0.4481  2.5599
    2ALA    HB2   13   0.740   5.428   4.955 -0.3639 -0.3158 -1.0186
    2ALA    HB3   14   0.840   5.473   4.821  1.1209 -0.9210  0.0736
    2ALA      C   15   0.709   5.704   4.896  0.7255  0.1556 -0.5521
    2ALA      O   16   0.617   5.754   4.965  0.7956 -0.2782 -0.4552
    3NME      N   17   0.705   5.685   4.765 -0.2566  0.3295 -0.6573
    3NME      H   18   0.797   5.662   4.731  0.5276  0.7966  0.9828
    3NME    CH3   19   0.616   5.746   4.674 -0.1663 -0.9456  0.4151
    3NME   HH31   20   0.556   5.676   4.617 -0.8361  0.8397 -1.1802
    3NME   HH32   21   0.542   5.807   4.725 -0.6007 -2.4912  1.7134
    3NME   HH33   22   0.662   5.816   4.604 -2.6222 -1.6656 -2.0625
  10.72160  10.72160  10.72160
