Protein
   42
    1ACE   HH31    1   8.937  12.060  15.729  0.2886  2.0209  1.3600
    1ACE    CH3    2   8.970  12.046  15.833  0.2174 -0.3077  1.1138
    1ACE   HH32    3   8.879  12.023  15.889  0.2544 -0.2886  1.1811
    1ACE   HH33    4   9.001  12.143  15.870 -1.3744  0.9386 -0.6518
    1ACE      C    5   9.069  11.933  15.840 -0.2819  0.3847  0.0901
    1ACE      O    6   9.061  11.857  15.931  0.2711  0.1400 -0.0465
    2ALA      N    7   9.173  11.939  15.757  0.5169  0.6164 -0.0927
    2ALA      H    8   9.179  12.021  15.699 -1.2981  1.8637  1.3404
    2ALA     CA    9   9.282  11.847  15.746 -0.3903 -1.4307  0.1450
    2ALA     HA   10   9.255  11.748  15.782  3.1091 -2.0938  1.3526
    2ALA     CB   11   9.308  11.848  15.597 -0.1394  0.2551 -0.1568
    2ALA    HB1   12   9.372  11.934  15.576 -0.6914  0.5438 -0.6921
    2ALA    HB2   13   9.362  11.758  15.569  1.2546  0.9406  0.2290
    2ALA    HB3   14   9.221  11.860  15.533 -0.6568 -1.0730  0.2562
    2ALA      C   15   9.394  11.911  15.835  0.8023  0.1744  0.1771
    2ALA      O   16   9.400  12.032  15.850  0.1845  0.1342 -0.1415
    3ALA      N   17   9.494  11.833  15.882  0.2467  0.3199  0.4665
    3ALA      H   18   9.568  11.885  15.928  0.8317 -0.4308  0.3926
    3ALA     CA   19   9.508  11.690  15.897  0.4535  0.1037 -0.6435
    3ALA     HA   20   9.480  11.650  15.799 -0.5064 -0.0352 -0.3254
    3ALA     CB   21   9.648  11.655  15.942 -0.3313 -0.0544 -0.1809
    3ALA    HB1   22   9.655  11.706  16.039 -2.6396  0.1441 -0.0936
    3ALA    HB2   23   9.646  11.546  15.949 -1.9885 -0.1620 -1.7925
    3ALA    HB3   24   9.726  11.692  15.875 -0.5453 -0.1806 -0.5034
    3ALA      C   25   9.406  11.623  15.999  0.0680  0.6888  0.5254
    3ALA      O   26   9.402  11.499  16.015  0.2337  0.1711 -0.5905
    4ALA      N   27   9.323  11.703  16.069  0.3366  0.2104  0.2622
    4ALA      H   28   9.315  11.802  16.050 -0.4609 -0.1902 -1.5819
    4ALA     CA   29   9.252  11.651  16.190  0.1685  0.9538 -0.0926
    4ALA     HA   30   9.325  11.581  16.231 -0.3084  0.9904  0.8355
    4ALA     CB   31   9.239  11.774  16.281 -0.6966  0.6481  0.2380
    4ALA    HB1   32   9.168  11.850  16.246 -1.6793 -0.2205  0.3214
    4ALA    HB2   33   9.213  11.737  16.380  0.8805 -2.4140 -0.3823
    4ALA    HB3   34   9.341  11.810  16.291  0.8549 -3.4486  1.2520
    4ALA      C   35   9.114  11.578  16.177 -0.1271 -0.3092  0.8543
    4ALA      O   36   9.087  11.477  16.239  0.4308  0.6220  0.2084
    5NME      N   37   9.036  11.612  16.071  0.6888  0.5169 -0.5414
    5NME      H   38   9.056  11.696  16.018 -2.0987  2.3970  1.1546
    5NME    CH3   39   8.908  11.550  16.037  0.3130 -0.9267 -0.2995
    5NME   HH31   40   8.837  11.591  16.108  0.1304  1.1924 -1.5869
    5NME   HH32   41   8.875  11.580  15.937 -0.0477  2.8685  0.7616
    5NME   HH33   42   8.912  11.444  16.058  1.8866 -0.5413  1.7265
  20.91516  20.91516  20.91516
