Protein
   32
    1ACE   HH31    1   8.731   2.718  12.970 -0.0647 -0.1414 -0.9076
    1ACE    CH3    2   8.667   2.631  12.961  0.0736 -0.3329 -0.1225
    1ACE   HH32    3   8.726   2.541  12.978  0.9286  0.3813  0.7775
    1ACE   HH33    4   8.637   2.642  12.856  0.0941  1.9539  0.0576
    1ACE      C    5   8.550   2.637  13.058 -0.0456 -0.3950  0.5692
    1ACE      O    6   8.565   2.695  13.166  0.2548  0.2050  0.0705
    2ALA      N    7   8.433   2.610  12.998  0.4692 -0.5138  0.4039
    2ALA      H    8   8.435   2.583  12.900  0.0101  1.3437 -0.1555
    2ALA     CA    9   8.298   2.609  13.056 -0.1686 -0.3940  0.7622
    2ALA     HA   10   8.248   2.697  13.015  0.4980  1.0542  2.8826
    2ALA     CB   11   8.229   2.479  13.002  0.0996 -0.1750 -0.5523
    2ALA    HB1   12   8.261   2.456  12.901 -0.5199 -2.7041 -0.2494
    2ALA    HB2   13   8.251   2.395  13.068  0.0960 -0.1103 -0.4652
    2ALA    HB3   14   8.121   2.488  12.999  0.0475 -0.7260 -0.5695
    2ALA      C   15   8.273   2.623  13.215  0.8615 -0.1582 -0.2356
    2ALA      O   16   8.174   2.687  13.241  0.1758  0.0156 -0.1282
    3ALA      N   17   8.342   2.559  13.308  1.0924  0.2758  0.6189
    3ALA      H   18   8.429   2.531  13.265  0.0174 -0.2431 -1.3340
    3ALA     CA   19   8.339   2.579  13.453  0.3478 -0.3103 -0.1028
    3ALA     HA   20   8.236   2.554  13.481  0.1835  0.6169  0.1700
    3ALA     CB   21   8.440   2.485  13.517 -0.1137 -0.3140 -0.0537
    3ALA    HB1   22   8.432   2.487  13.626  0.0200 -0.1227 -0.0468
    3ALA    HB2   23   8.430   2.381  13.485  0.4414  0.0692 -1.5708
    3ALA    HB3   24   8.542   2.512  13.491  0.1323 -0.8485  0.3466
    3ALA      C   25   8.370   2.721  13.496  0.1640 -0.0675  0.2833
    3ALA      O   26   8.310   2.754  13.600  0.4178  0.1914 -0.1089
    4NME      N   27   8.455   2.798  13.427 -0.4507 -0.0425 -0.1934
    4NME      H   28   8.488   2.763  13.338 -0.9203 -1.0745  0.0248
    4NME    CH3   29   8.494   2.935  13.450 -0.3984  0.0750 -0.1438
    4NME   HH31   30   8.536   2.938  13.550  0.9344 -2.3046 -0.5732
    4NME   HH32   31   8.575   2.969  13.386 -0.7723 -1.2846 -1.4048
    4NME   HH33   32   8.408   3.001  13.433  0.9629  1.1169 -3.8488
  20.99041  20.99041  20.99041
