Protein
   42
    1ACE   HH31    1  10.267   9.432  10.976  1.8309  0.3104 -2.0435
    1ACE    CH3    2  10.190   9.491  10.928  0.2749 -0.1440 -0.2078
    1ACE   HH32    3  10.091   9.451  10.951 -0.2442  1.5503  0.6172
    1ACE   HH33    4  10.192   9.477  10.820 -0.3428  0.6755 -0.3343
    1ACE      C    5  10.202   9.632  10.978 -0.6957 -0.4830 -0.0437
    1ACE      O    6  10.139   9.670  11.079 -0.8054  0.6324  0.1745
    2ALA      N    7  10.266   9.726  10.900  0.8132  0.2185  0.3937
    2ALA      H    8  10.306   9.681  10.818 -1.7062 -1.9895  0.2238
    2ALA     CA    9  10.297   9.865  10.932 -0.9472  0.3279  0.4259
    2ALA     HA   10  10.209   9.923  10.961 -2.2787 -1.2625 -0.3254
    2ALA     CB   11  10.399   9.861  11.048 -0.0792 -0.1062 -1.0249
    2ALA    HB1   12  10.346   9.826  11.136  0.0885  1.4199 -0.2851
    2ALA    HB2   13  10.476   9.787  11.026  1.6765  1.0852  0.8582
    2ALA    HB3   14  10.449   9.957  11.065 -1.0013 -0.0464  1.9593
    2ALA      C   15  10.380   9.928  10.821 -0.1188 -0.1909  0.2070
    2ALA      O   16  10.433   9.868  10.731 -0.4864  0.7722 -0.2584
    3ALA      N   17  10.369  10.056  10.804  0.0705  0.2108 -0.3792
    3ALA      H   18  10.409  10.083  10.715 -1.3173  2.4939 -0.3904
    3ALA     CA   19  10.305  10.156  10.878 -0.4005 -0.4274 -0.2271
    3ALA     HA   20  10.331  10.145  10.983  3.1539  1.0069 -0.8323
    3ALA     CB   21  10.376  10.293  10.835 -0.2732  0.6398  0.3867
    3ALA    HB1   22  10.481  10.282  10.864  0.3565 -0.7679 -2.1572
    3ALA    HB2   23  10.364  10.315  10.729  2.0299  0.7930  0.1118
    3ALA    HB3   24  10.339  10.378  10.891 -0.6424  0.8403 -0.1589
    3ALA      C   25  10.155  10.171  10.856  0.8407 -0.5335 -0.0906
    3ALA      O   26  10.080  10.253  10.916 -0.0475 -0.1720 -0.1011
    4ALA      N   27  10.094  10.089  10.769 -0.4457 -0.5781  0.5490
    4ALA      H   28  10.168  10.037  10.725  0.7045  2.1053 -0.8723
    4ALA     CA   29   9.955  10.071  10.715 -0.2849  0.3846 -0.0343
    4ALA     HA   30   9.963  10.048  10.609  2.5486 -0.2734  0.2408
    4ALA     CB   31   9.909   9.947  10.792 -0.0168 -0.1808  0.6977
    4ALA    HB1   32   9.991   9.875  10.794  0.8743  0.7891  0.3725
    4ALA    HB2   33   9.897   9.982  10.894  2.5339 -1.1585  1.4211
    4ALA    HB3   34   9.813   9.921  10.749 -0.4999  0.1267  1.5677
    4ALA      C   35   9.849  10.185  10.717 -0.5481  0.1008 -0.1942
    4ALA      O   36   9.799  10.216  10.609  0.0550 -0.1740 -0.2835
    5NME      N   37   9.808  10.240  10.834  0.0089  0.0840  0.3124
    5NME      H   38   9.856  10.208  10.917  1.1919 -0.2286 -0.4665
    5NME    CH3   39   9.709  10.348  10.837  0.3936 -0.7639  0.6303
    5NME   HH31   40   9.746  10.440  10.793 -0.3517 -0.8506 -0.1950
    5NME   HH32   41   9.610  10.323  10.799 -0.1703 -0.9180  2.1205
    5NME   HH33   42   9.699  10.365  10.945 -2.0099  1.0311  0.2100
  20.91516  20.91516  20.91516
