Protein
   32
    1ACE   HH31    1  15.230  10.886  10.467 -0.0449 -0.0184  0.9141
    1ACE    CH3    2  15.337  10.868  10.468 -0.0136  0.1169  0.2567
    1ACE   HH32    3  15.369  10.811  10.381 -0.1322 -0.0043  0.2909
    1ACE   HH33    4  15.377  10.813  10.553 -0.0023 -3.4991 -1.9079
    1ACE      C    5  15.409  11.005  10.470  0.3607  0.1928  0.5251
    1ACE      O    6  15.461  11.041  10.362  0.2628  0.0692  0.1176
    2ALA      N    7  15.401  11.081  10.575  0.0584  0.2404 -0.7631
    2ALA      H    8  15.362  11.047  10.661  3.1768 -1.8280  0.0168
    2ALA     CA    9  15.476  11.207  10.585 -0.1307 -0.5326  1.1905
    2ALA     HA   10  15.460  11.279  10.505 -0.1170  0.0822  1.7310
    2ALA     CB   11  15.416  11.280  10.711  0.2009  0.0989 -0.3503
    2ALA    HB1   12  15.469  11.371  10.738 -0.4343 -0.7755  4.6374
    2ALA    HB2   13  15.308  11.295  10.706  0.1855  0.5117  0.8570
    2ALA    HB3   14  15.440  11.205  10.787 -0.6091 -0.0488 -0.2307
    2ALA      C   15  15.631  11.193  10.596 -0.4727  0.4463 -1.0551
    2ALA      O   16  15.702  11.280  10.644 -0.0957  0.4792 -0.4112
    3ALA      N   17  15.693  11.079  10.553  0.6918 -0.0130 -0.3794
    3ALA      H   18  15.629  11.020  10.501 -0.2598  0.8230 -0.1814
    3ALA     CA   19  15.823  11.024  10.590 -0.7709  0.1250  0.0887
    3ALA     HA   20  15.814  10.916  10.580  3.5384 -0.2714 -1.5803
    3ALA     CB   21  15.929  11.061  10.480 -0.3968 -0.5055 -0.0981
    3ALA    HB1   22  15.924  11.169  10.470 -1.9924 -0.7325 -2.4837
    3ALA    HB2   23  16.034  11.044  10.507  0.2536  1.4228 -1.1670
    3ALA    HB3   24  15.905  11.009  10.388 -1.7558  2.0442 -1.2775
    3ALA      C   25  15.868  11.054  10.737 -0.4302 -0.0215  0.3405
    3ALA      O   26  15.820  10.979  10.824  0.5495  0.0172 -0.0745
    4NME      N   27  15.969  11.137  10.756 -0.0514 -0.5627  0.1605
    4NME      H   28  15.997  11.193  10.676  1.1563 -0.6632  0.5144
    4NME    CH3   29  16.011  11.188  10.882  0.2972 -0.1980  0.4348
    4NME   HH31   30  16.117  11.164  10.887  0.8935  2.1429  0.8279
    4NME   HH32   31  16.004  11.297  10.888  2.3391  0.0179 -0.3319
    4NME   HH33   32  15.961  11.138  10.965  0.2366  1.0781  1.2087
  20.99041  20.99041  20.99041
