Protein
   32
    1ACE   HH31    1  14.293  10.885   5.861 -1.7243 -0.2553 -0.1017
    1ACE    CH3    2  14.274  10.870   5.755  0.7455  0.3197 -0.6971
    1ACE   HH32    3  14.184  10.921   5.719 -1.0367 -1.2824  1.1791
    1ACE   HH33    4  14.246  10.764   5.763  1.4510  0.2039  0.3118
    1ACE      C    5  14.398  10.887   5.673  0.6988 -0.2173  0.3381
    1ACE      O    6  14.504  10.912   5.729 -0.0670  0.2923  0.2169
    2ALA      N    7  14.380  10.870   5.543  0.4059 -0.2955  0.0948
    2ALA      H    8  14.288  10.840   5.513  0.7384 -0.2934 -0.9772
    2ALA     CA    9  14.494  10.887   5.451 -0.4225 -0.3051  0.0738
    2ALA     HA   10  14.559  10.968   5.485 -0.4220 -0.7444  1.1479
    2ALA     CB   11  14.571  10.744   5.449 -0.5090 -0.6888  0.3716
    2ALA    HB1   12  14.618  10.747   5.547 -1.4069 -1.0140  0.8218
    2ALA    HB2   13  14.495  10.670   5.426 -1.0898  0.4713 -1.7188
    2ALA    HB3   14  14.640  10.737   5.365  0.9441 -0.6629  1.5442
    2ALA      C   15  14.459  10.929   5.301  1.0462 -0.4176 -0.0079
    2ALA      O   16  14.537  10.932   5.212  0.3066 -0.2425  0.2155
    3ALA      N   17  14.335  10.978   5.272  0.4366  0.2113 -0.4078
    3ALA      H   18  14.271  10.992   5.349  0.3564  0.8382 -0.5771
    3ALA     CA   19  14.298  11.022   5.138  0.5046  0.1008  0.0899
    3ALA     HA   20  14.348  10.951   5.072 -1.5049 -1.5853  0.2624
    3ALA     CB   21  14.145  10.992   5.110 -0.4183 -0.0440  0.0332
    3ALA    HB1   22  14.137  11.002   5.001 -1.1986  1.5150  0.2094
    3ALA    HB2   23  14.120  10.890   5.139 -1.8038 -0.5440 -2.6494
    3ALA    HB3   24  14.079  11.066   5.153  1.7484  1.3919  1.0177
    3ALA      C   25  14.353  11.157   5.080 -0.8604 -0.0349  0.3877
    3ALA      O   26  14.340  11.189   4.963 -0.7463  0.2309 -0.7543
    4NME      N   27  14.415  11.238   5.168  0.3297 -0.0415  0.0317
    4NME      H   28  14.425  11.205   5.263  1.4587 -0.8860 -0.3673
    4NME    CH3   29  14.464  11.367   5.137 -0.1737  0.7206 -0.0561
    4NME   HH31   30  14.563  11.381   5.182  1.7908 -0.6666 -3.5428
    4NME   HH32   31  14.474  11.388   5.031  1.0362 -1.3273 -0.4073
    4NME   HH33   32  14.390  11.436   5.176 -1.8110 -1.2962  0.5949
  20.99041  20.99041  20.99041
