Protein
   42
    1ACE   HH31    1   2.138  10.014  11.081 -0.3190  1.3381  2.2323
    1ACE    CH3    2   2.210  10.090  11.051  0.2796 -0.1037 -0.3432
    1ACE   HH32    3   2.306  10.062  11.094  0.1890 -3.6908 -2.1513
    1ACE   HH33    4   2.183  10.195  11.067  0.0029 -0.2418  0.1275
    1ACE      C    5   2.227  10.085  10.899 -0.3854  0.0127 -0.1425
    1ACE      O    6   2.339  10.067  10.855 -0.2926 -0.4665 -0.2011
    2ALA      N    7   2.118  10.101  10.823 -0.5424 -0.3287 -0.3760
    2ALA      H    8   2.035  10.125  10.875 -1.3144  0.1986 -1.7995
    2ALA     CA    9   2.100  10.083  10.679  0.0676  0.0943  0.0274
    2ALA     HA   10   1.997  10.107  10.652 -0.2177 -0.0660  0.9451
    2ALA     CB   11   2.166  10.203  10.608  0.1179  0.1589 -1.0948
    2ALA    HB1   12   2.273  10.184  10.598 -0.2559 -2.4916 -0.5656
    2ALA    HB2   13   2.118  10.218  10.511  0.0680  1.4964 -0.8766
    2ALA    HB3   14   2.151  10.295  10.664 -1.7305 -0.1318 -1.0582
    2ALA      C   15   2.135   9.949  10.614 -0.5812  0.0970  0.0765
    2ALA      O   16   2.049   9.903  10.541  0.4033 -0.3607  0.2825
    3ALA      N   17   2.253   9.886  10.643  0.2318  0.7602 -0.5729
    3ALA      H   18   2.310   9.944  10.703  0.5673  1.3695 -1.4515
    3ALA     CA   19   2.324   9.758  10.609 -0.5844 -0.2641 -0.0527
    3ALA     HA   20   2.426   9.790  10.627 -0.6091  0.9478 -1.9025
    3ALA     CB   21   2.287   9.660  10.729 -0.2045  0.5894  0.8882
    3ALA    HB1   22   2.365   9.586  10.748 -0.5095  0.9012  3.7845
    3ALA    HB2   23   2.293   9.714  10.824  2.3470 -1.7957  2.2311
    3ALA    HB3   24   2.188   9.614  10.724 -0.4419  1.1120  0.7694
    3ALA      C   25   2.313   9.687  10.475 -0.0772 -0.2621  0.1962
    3ALA      O   26   2.409   9.620  10.432  0.1688  0.0486  0.2129
    4ALA      N   27   2.196   9.701  10.413 -0.1828 -0.0345  0.1971
    4ALA      H   28   2.120   9.749  10.458 -3.2626 -4.1111 -0.1006
    4ALA     CA   29   2.176   9.661  10.269 -0.3204  0.2506  0.5387
    4ALA     HA   30   2.273   9.658  10.219 -1.1620 -0.7364 -1.0993
    4ALA     CB   31   2.139   9.509  10.271 -0.2417 -0.2726 -0.7472
    4ALA    HB1   32   2.043   9.495  10.320  0.4983  1.9835  1.6009
    4ALA    HB2   33   2.142   9.470  10.169  0.2715  1.9277 -1.6437
    4ALA    HB3   34   2.211   9.454  10.332 -0.7763  1.4642  1.5818
    4ALA      C   35   2.071   9.741  10.182 -0.4428 -0.5090 -0.3001
    4ALA      O   36   2.081   9.729  10.057 -0.9740  0.3496  0.4892
    5NME      N   37   1.987   9.829  10.234 -0.1756  0.1088  0.1604
    5NME      H   38   1.969   9.830  10.333 -0.5282  1.3346  0.0989
    5NME    CH3   39   1.925   9.949  10.169 -0.0344  0.5628 -0.8348
    5NME   HH31   40   1.847   9.910  10.103 -0.1521 -0.3002 -0.1996
    5NME   HH32   41   1.888  10.015  10.247 -1.2244 -3.3699  2.2781
    5NME   HH33   42   2.000  10.006  10.114 -0.8668  0.6114 -1.9426
  20.91516  20.91516  20.91516
