Protein
   42
    1ACE   HH31    1   4.592  12.618  12.541  3.3825 -0.4656  2.1084
    1ACE    CH3    2   4.613  12.545  12.463 -0.1432 -0.9004  1.4204
    1ACE   HH32    3   4.540  12.466  12.443 -0.3256 -0.5055  0.4745
    1ACE   HH33    4   4.708  12.497  12.483  1.0155  0.2598 -0.9204
    1ACE      C    5   4.631  12.630  12.334  0.3343  0.5505 -0.8724
    1ACE      O    6   4.745  12.630  12.290 -0.0177 -0.5382  0.4511
    2ALA      N    7   4.526  12.687  12.273  0.5541  0.2812  0.0472
    2ALA      H    8   4.442  12.701  12.328 -0.1973 -1.2315 -0.6189
    2ALA     CA    9   4.516  12.745  12.135 -0.2649  0.3198  0.0175
    2ALA     HA   10   4.420  12.710  12.097 -1.0167  0.9080  1.3339
    2ALA     CB   11   4.509  12.902  12.138 -0.3022 -0.3733  0.0076
    2ALA    HB1   12   4.611  12.939  12.138  0.2195 -1.7256  0.3663
    2ALA    HB2   13   4.460  12.939  12.047  0.5712  1.1923  0.1421
    2ALA    HB3   14   4.447  12.922  12.225 -0.0372 -1.5868  0.5014
    2ALA      C   15   4.623  12.700  12.026 -0.0680  0.6412  0.3290
    2ALA      O   16   4.581  12.621  11.939  0.0223  0.8617 -0.2582
    3ALA      N   17   4.750  12.734  12.036 -0.4311 -0.2903  0.0381
    3ALA      H   18   4.779  12.769  12.126  0.1877  1.4827 -0.8135
    3ALA     CA   19   4.856  12.705  11.947 -0.1119 -0.4316  0.0129
    3ALA     HA   20   4.818  12.627  11.881  2.1682 -1.4253 -0.2189
    3ALA     CB   21   4.895  12.833  11.866 -0.2876  0.0971 -0.7386
    3ALA    HB1   22   4.938  12.902  11.938 -0.4716 -1.0613  0.5248
    3ALA    HB2   23   4.962  12.807  11.784  0.5896  0.4550 -0.1533
    3ALA    HB3   24   4.805  12.876  11.823 -0.5826  0.3364  0.1090
    3ALA      C   25   4.970  12.622  11.998  0.1104  0.5801  0.1652
    3ALA      O   26   5.086  12.627  11.951  0.1945 -0.2740  0.0613
    4ALA      N   27   4.941  12.547  12.104  1.3561  0.2238  0.4230
    4ALA      H   28   4.850  12.562  12.147  0.3300  0.9093 -1.8393
    4ALA     CA   29   5.019  12.437  12.171  0.5696  0.1672  0.1901
    4ALA     HA   30   4.949  12.384  12.235  1.9146 -3.4901 -1.1009
    4ALA     CB   31   5.070  12.337  12.062 -0.2537  0.3030  0.0038
    4ALA    HB1   32   4.995  12.268  12.024  0.1283  1.1062 -2.4187
    4ALA    HB2   33   5.107  12.389  11.973 -2.5335  0.2151 -1.0866
    4ALA    HB3   34   5.152  12.279  12.105  1.3355  0.8000 -2.1441
    4ALA      C   35   5.120  12.484  12.272  0.1758  0.0144  0.4930
    4ALA      O   36   5.138  12.423  12.379 -0.4405 -0.3071  0.1743
    5NME      N   37   5.188  12.590  12.235 -0.3191  0.5913 -0.2420
    5NME      H   38   5.168  12.615  12.139 -3.0819 -1.5498 -0.3258
    5NME    CH3   39   5.274  12.673  12.318 -0.7033  0.2849  0.7364
    5NME   HH31   40   5.260  12.669  12.426  0.0217  1.7416  0.9160
    5NME   HH32   41   5.379  12.653  12.296 -0.5909  3.0216 -1.8799
    5NME   HH33   42   5.235  12.771  12.289  0.7439  0.0974 -2.2525
  20.91516  20.91516  20.91516
