Protein
   42
    1ACE   HH31    1  10.284  10.531   9.881 -0.5815 -2.3217  0.5629
    1ACE    CH3    2  10.252  10.562   9.980  0.0839  0.6709 -0.0604
    1ACE   HH32    3  10.232  10.471  10.038  2.1523  0.3713  0.2865
    1ACE   HH33    4  10.164  10.625   9.982 -0.6752 -0.0990 -3.5022
    1ACE      C    5  10.361  10.618  10.065 -0.3424  0.9135  0.8982
    1ACE      O    6  10.339  10.648  10.181  0.0960  0.4608 -0.1477
    2ALA      N    7  10.479  10.638  10.007 -0.2508  0.0321 -0.5730
    2ALA      H    8  10.487  10.603   9.913  1.3203  0.5162 -0.6315
    2ALA     CA    9  10.599  10.705  10.066 -0.2022 -0.1578  0.4981
    2ALA     HA   10  10.563  10.776  10.141 -0.4544 -1.1957  1.3784
    2ALA     CB   11  10.676  10.589  10.145  0.3923  0.0464  0.0431
    2ALA    HB1   12  10.615  10.544  10.223  2.0679 -2.6062 -0.0174
    2ALA    HB2   13  10.704  10.511  10.074 -0.7341 -0.3078 -0.0176
    2ALA    HB3   14  10.760  10.639  10.194 -1.3148  2.9678  0.1658
    2ALA      C   15  10.675  10.780   9.954 -0.3429  0.4181  0.6441
    2ALA      O   16  10.756  10.722   9.883  0.2825  0.0633  0.9682
    3ALA      N   17  10.659  10.910   9.929  0.6192 -0.1742 -0.3470
    3ALA      H   18  10.724  10.939   9.858 -0.0876 -0.1452 -0.9918
    3ALA     CA   19  10.577  11.017   9.997 -0.9688  0.2773  0.0933
    3ALA     HA   20  10.546  11.081   9.914 -1.1113  0.0623 -0.0199
    3ALA     CB   21  10.436  10.974  10.051 -0.6984 -0.6828  0.4853
    3ALA    HB1   22  10.370  11.058  10.073  1.0173  0.3741  1.8960
    3ALA    HB2   23  10.387  10.904   9.984  0.6157  0.0649 -1.2990
    3ALA    HB3   24  10.454  10.943  10.154  0.2644  0.2263  0.6160
    3ALA      C   25  10.663  11.093  10.094 -1.0060  0.0106 -0.8002
    3ALA      O   26  10.712  11.023  10.182  0.0516 -0.2810  0.3173
    4ALA      N   27  10.684  11.222  10.072 -0.1913 -0.4155  0.4687
    4ALA      H   28  10.645  11.264   9.989 -0.0265 -0.6703  0.2572
    4ALA     CA   29  10.786  11.305  10.136 -0.0636  0.6303 -0.6675
    4ALA     HA   30  10.887  11.266  10.121 -0.3486 -0.7314  0.7111
    4ALA     CB   31  10.787  11.444  10.074 -0.2384  0.1308 -0.2364
    4ALA    HB1   32  10.864  11.506  10.120 -0.3761 -0.0490  0.2407
    4ALA    HB2   33  10.813  11.446   9.968  0.5113  5.2497 -0.2213
    4ALA    HB3   34  10.689  11.492  10.083 -0.8530 -1.4809  3.9748
    4ALA      C   35  10.774  11.318  10.293 -0.3652 -0.6013  0.6738
    4ALA      O   36  10.862  11.370  10.358 -0.0348 -0.1552  0.0436
    5NME      N   37  10.667  11.269  10.357 -0.1171  0.6829  0.7103
    5NME      H   38  10.597  11.219  10.303 -0.3720  0.8825  0.8510
    5NME    CH3   39  10.645  11.271  10.502  0.0645  0.3100 -0.0219
    5NME   HH31   40  10.682  11.187  10.561  2.4103  1.1647 -0.1841
    5NME   HH32   41  10.685  11.353  10.561 -2.5886  1.6032  0.1018
    5NME   HH33   42  10.539  11.280  10.526  0.1783  0.3032  0.4865
  20.91516  20.91516  20.91516
