Protein
   42
    1ACE   HH31    1  10.242   9.417  10.731  0.0749  0.0327  0.6036
    1ACE    CH3    2  10.205   9.511  10.772  0.2885  0.0861  0.6850
    1ACE   HH32    3  10.101   9.500  10.801  0.1635  0.3341  0.3716
    1ACE   HH33    4  10.220   9.585  10.693  0.8807 -0.4071  0.3242
    1ACE      C    5  10.281   9.565  10.895  1.1056 -0.1927 -0.3310
    1ACE      O    6  10.392   9.524  10.921  0.1853  0.4409 -0.7346
    2ALA      N    7  10.212   9.655  10.971 -0.2977  0.2360  0.7540
    2ALA      H    8  10.115   9.663  10.945 -0.1670 -1.0674 -0.2527
    2ALA     CA    9  10.263   9.722  11.086  0.4421 -0.9514 -0.1218
    2ALA     HA   10  10.360   9.764  11.059  0.0212  0.1700  0.0288
    2ALA     CB   11  10.165   9.838  11.124 -0.1987 -0.3748 -0.0947
    2ALA    HB1   12  10.211   9.925  11.172  1.0940 -0.8639 -0.3886
    2ALA    HB2   13  10.122   9.880  11.033  0.6250 -1.1876 -0.8834
    2ALA    HB3   14  10.083   9.799  11.185 -1.0993  0.3117 -0.8448
    2ALA      C   15  10.290   9.633  11.216  0.2616  0.2353  0.3099
    2ALA      O   16  10.384   9.654  11.290  0.3089 -0.2314  0.2079
    3ALA      N   17  10.200   9.545  11.258 -0.4728  0.1197 -0.4921
    3ALA      H   18  10.209   9.514  11.354  0.0008  1.3066 -0.1300
    3ALA     CA   19  10.101   9.476  11.184 -0.0522  0.3259  0.4303
    3ALA     HA   20  10.133   9.460  11.081 -2.3351  1.1862 -0.4801
    3ALA     CB   21  10.075   9.337  11.248  0.4718  0.1226 -0.3708
    3ALA    HB1   22  10.028   9.342  11.347 -1.8051 -2.4773 -1.1831
    3ALA    HB2   23  10.001   9.283  11.189 -1.1084 -0.7550  2.2111
    3ALA    HB3   24  10.165   9.277  11.257  1.6524  1.3003 -3.2818
    3ALA      C   25   9.969   9.551  11.158 -0.2403 -0.0010 -0.4343
    3ALA      O   26   9.952   9.616  11.053  0.0704 -0.4613  0.2370
    4ALA      N   27   9.871   9.544  11.249  0.4032 -0.0616  0.1014
    4ALA      H   28   9.894   9.478  11.322 -0.3360 -0.4336  0.0055
    4ALA     CA   29   9.745   9.621  11.267  0.0779 -0.1361  0.7923
    4ALA     HA   30   9.680   9.574  11.341 -1.1543  0.1404 -0.0781
    4ALA     CB   31   9.788   9.760  11.318  0.4485  0.6124  0.2619
    4ALA    HB1   32   9.696   9.815  11.339  0.7088  0.1048  3.1085
    4ALA    HB2   33   9.849   9.758  11.408  2.4025 -0.4948 -1.0383
    4ALA    HB3   34   9.852   9.807  11.244  2.2773 -0.6766  0.9449
    4ALA      C   35   9.663   9.627  11.135 -0.9339 -0.2348  0.3350
    4ALA      O   36   9.669   9.721  11.061  0.1348 -0.0565  0.0582
    5NME      N   37   9.588   9.523  11.098 -0.1615  0.3801 -0.1089
    5NME      H   38   9.581   9.452  11.169  2.1080 -0.3329 -0.5236
    5NME    CH3   39   9.521   9.506  10.971  0.9601  0.0123 -0.4598
    5NME   HH31   40   9.431   9.567  10.969 -0.0710 -1.4361 -1.0331
    5NME   HH32   41   9.577   9.538  10.883  1.2360 -1.2220 -0.7549
    5NME   HH33   42   9.484   9.403  10.972 -1.1175  0.5345  4.2707
  20.91516  20.91516  20.91516
