Protein
   32
    1ACE   HH31    1   2.593  18.791   1.930 -0.7457 -0.8027  0.0417
    1ACE    CH3    2   2.604  18.719   1.849  0.0764  0.0742 -0.6482
    1ACE   HH32    3   2.592  18.616   1.883  0.3185 -0.0791 -1.0085
    1ACE   HH33    4   2.705  18.707   1.810  0.3271 -2.1110  0.5465
    1ACE      C    5   2.505  18.743   1.736 -0.7203  0.5909  0.0096
    1ACE      O    6   2.387  18.728   1.754  0.8002 -0.4989 -0.4729
    2ALA      N    7   2.553  18.791   1.621  0.1901  0.5142  0.1858
    2ALA      H    8   2.649  18.823   1.622 -0.1054  1.4362  0.0399
    2ALA     CA    9   2.471  18.798   1.496  0.2824  0.3254  1.2497
    2ALA     HA   10   2.378  18.849   1.518 -1.1075 -1.1628 -0.7912
    2ALA     CB   11   2.547  18.879   1.384 -0.1837 -0.1200 -0.4365
    2ALA    HB1   12   2.644  18.830   1.370 -0.7202 -1.0677 -0.8889
    2ALA    HB2   13   2.501  18.894   1.287  0.5486  1.3516 -0.5823
    2ALA    HB3   14   2.558  18.982   1.419 -1.5532 -0.6401  1.7478
    2ALA      C   15   2.425  18.665   1.433  0.2209 -0.2871 -0.5949
    2ALA      O   16   2.470  18.558   1.475 -0.2344 -0.2377  0.7211
    3ALA      N   17   2.336  18.678   1.338 -0.1842  0.5668  0.5154
    3ALA      H   18   2.292  18.768   1.326 -0.4791  0.2584 -0.8456
    3ALA     CA   19   2.278  18.575   1.254  0.6271 -0.9539 -0.3453
    3ALA     HA   20   2.201  18.629   1.200 -0.9102 -4.1963 -1.6585
    3ALA     CB   21   2.376  18.517   1.154 -0.4662  0.2521 -0.1146
    3ALA    HB1   22   2.330  18.430   1.108 -0.6274 -1.2043  2.5700
    3ALA    HB2   23   2.402  18.593   1.080  0.7201 -0.5327 -0.5142
    3ALA    HB3   24   2.460  18.478   1.212 -2.0754 -2.1210  0.7784
    3ALA      C   25   2.190  18.471   1.330 -0.1944  0.5244  0.1897
    3ALA      O   26   2.116  18.394   1.267 -0.7740  0.0991 -0.2691
    4NME      N   27   2.197  18.468   1.462  0.3154 -0.1298 -0.0905
    4NME      H   28   2.258  18.532   1.511 -0.5496 -0.8756  2.0648
    4NME    CH3   29   2.123  18.368   1.537  0.0587  0.1343 -0.6889
    4NME   HH31   30   2.171  18.273   1.512  0.6584  0.0433  0.7477
    4NME   HH32   31   2.133  18.391   1.643  1.8211  1.1598 -1.0258
    4NME   HH33   32   2.016  18.365   1.515 -0.3082  0.1118  0.9877
  20.99041  20.99041  20.99041
