Protein
   42
    1ACE   HH31    1   8.267  15.345  15.263  1.2650  0.3114 -1.0614
    1ACE    CH3    2   8.246  15.450  15.243  0.9088  0.3376 -0.5580
    1ACE   HH32    3   8.326  15.502  15.295  1.7818  0.8613 -2.3492
    1ACE   HH33    4   8.150  15.477  15.286  0.4835 -1.9423  0.0402
    1ACE      C    5   8.230  15.487  15.098 -0.2143 -0.2988  0.3338
    1ACE      O    6   8.279  15.582  15.052  0.0028 -0.1021  0.8102
    2ALA      N    7   8.148  15.406  15.028 -0.6663 -0.1380 -1.0194
    2ALA      H    8   8.148  15.312  15.066  1.5752 -0.8970 -2.7294
    2ALA     CA    9   8.083  15.424  14.896 -0.5469  0.5953  0.0778
    2ALA     HA   10   8.007  15.346  14.897 -0.3856  0.4319  1.5175
    2ALA     CB   11   8.003  15.553  14.894 -0.1646  0.8481  0.1495
    2ALA    HB1   12   7.948  15.557  14.799  0.5069  0.2805 -0.2675
    2ALA    HB2   13   7.935  15.544  14.978  0.1547  0.1335  0.3342
    2ALA    HB3   14   8.065  15.639  14.919  0.8137 -0.6441  3.2980
    2ALA      C   15   8.178  15.402  14.777 -0.6078 -0.7107  0.6428
    2ALA      O   16   8.136  15.337  14.684 -0.0473 -0.1184 -0.0952
    3ALA      N   17   8.294  15.466  14.777 -0.6632 -0.5880  0.3306
    3ALA      H   18   8.305  15.523  14.860  1.0132 -0.5046  0.0699
    3ALA     CA   19   8.408  15.454  14.684 -0.4949 -0.0289  0.1519
    3ALA     HA   20   8.494  15.513  14.716 -0.8114  0.5902 -0.1350
    3ALA     CB   21   8.458  15.310  14.690  0.4535 -0.4490 -0.3449
    3ALA    HB1   22   8.552  15.296  14.637 -0.5177  1.8846 -2.8654
    3ALA    HB2   23   8.484  15.302  14.796  1.5076  1.8475 -0.3756
    3ALA    HB3   24   8.379  15.242  14.659 -1.8404  0.6501  2.5621
    3ALA      C   25   8.383  15.485  14.534  0.1924  0.3372 -0.5769
    3ALA      O   26   8.476  15.491  14.455  0.5990 -0.1701  0.1313
    4ALA      N   27   8.256  15.511  14.498  0.5958  0.3159 -0.0902
    4ALA      H   28   8.175  15.506  14.557  0.7874 -0.5358  0.1287
    4ALA     CA   29   8.230  15.564  14.361 -0.9738  0.3355 -0.7665
    4ALA     HA   30   8.309  15.629  14.322 -0.6138 -0.5277 -1.5360
    4ALA     CB   31   8.221  15.451  14.260  0.2070  0.0253 -0.1916
    4ALA    HB1   32   8.207  15.492  14.160  0.1206  2.2608  0.6609
    4ALA    HB2   33   8.311  15.392  14.274 -0.4683 -0.9509  0.1033
    4ALA    HB3   34   8.134  15.391  14.287 -0.1923 -0.1191 -1.7054
    4ALA      C   35   8.094  15.638  14.364  0.8245 -0.2514 -0.1877
    4ALA      O   36   8.025  15.631  14.470 -0.4641 -0.0081  0.6762
    5NME      N   37   8.056  15.721  14.265  0.1315 -0.4350  0.3387
    5NME      H   38   8.117  15.739  14.187 -0.4047  1.2191  0.2466
    5NME    CH3   39   7.940  15.808  14.269 -0.7507  0.5818  0.3096
    5NME   HH31   40   7.895  15.794  14.368 -0.5338 -0.7815  0.2488
    5NME   HH32   41   7.961  15.913  14.254 -2.3335  1.3508  2.7607
    5NME   HH33   42   7.875  15.769  14.191 -0.4333  2.9053 -1.1580
  20.91516  20.91516  20.91516
