Protein
   32
    1ACE   HH31    1   5.208  15.910   6.395  0.0222 -0.1621  0.8768
    1ACE    CH3    2   5.314  15.891   6.411  0.0977 -0.2043  0.3739
    1ACE   HH32    3   5.363  15.975   6.461 -1.6862  2.9854 -2.7310
    1ACE   HH33    4   5.357  15.880   6.311  0.9831 -0.4668  0.7728
    1ACE      C    5   5.337  15.763   6.495  0.1771  0.4935  0.1382
    1ACE      O    6   5.433  15.684   6.473 -0.4746  0.2720 -0.1595
    2ALA      N    7   5.248  15.749   6.594 -0.7005 -0.1717  0.5326
    2ALA      H    8   5.174  15.816   6.606 -0.8666  0.0295 -1.2926
    2ALA     CA    9   5.258  15.640   6.691  0.3493 -0.1175  0.0423
    2ALA     HA   10   5.334  15.571   6.654 -0.0088  0.0636 -1.0664
    2ALA     CB   11   5.311  15.686   6.831  0.2048 -0.2865 -0.6862
    2ALA    HB1   12   5.413  15.719   6.811  0.1352 -0.5463 -1.5474
    2ALA    HB2   13   5.247  15.762   6.875 -0.3755 -1.2499  0.1655
    2ALA    HB3   14   5.322  15.594   6.888 -1.9268 -1.3836 -1.9168
    2ALA      C   15   5.125  15.563   6.705  0.2636  0.4393 -0.6627
    2ALA      O   16   5.020  15.628   6.715 -0.7879 -0.5655  0.0238
    3ALA      N   17   5.138  15.433   6.684  0.6682 -0.5183  0.5471
    3ALA      H   18   5.231  15.394   6.676  1.2828 -0.0751  3.9887
    3ALA     CA   19   5.031  15.334   6.684 -0.2371  0.5441  0.3689
    3ALA     HA   20   4.993  15.327   6.582 -1.9215  0.9829  0.9378
    3ALA     CB   21   5.090  15.193   6.699  0.0132 -0.0550 -0.1083
    3ALA    HB1   22   5.148  15.196   6.792  1.6772  0.3231 -1.1167
    3ALA    HB2   23   5.008  15.120   6.694 -1.7524  1.9472 -2.2386
    3ALA    HB3   24   5.154  15.164   6.616 -1.4075 -1.0901 -0.8993
    3ALA      C   25   4.906  15.355   6.774  0.1133 -0.0644  0.4196
    3ALA      O   26   4.890  15.292   6.878 -0.0849 -0.3338  0.3902
    4NME      N   27   4.808  15.437   6.728  0.8892 -0.2222  0.0880
    4NME      H   28   4.818  15.485   6.640 -3.1866 -1.1046 -1.0754
    4NME    CH3   29   4.681  15.465   6.804  0.6367 -0.3021  0.1238
    4NME   HH31   30   4.704  15.503   6.904  0.3861  1.0442 -0.3288
    4NME   HH32   31   4.627  15.540   6.747  2.6190  1.5437  0.5767
    4NME   HH33   32   4.625  15.373   6.820  2.6662 -1.7910 -0.8756
  20.99041  20.99041  20.99041
