Protein
   22
    1ACE   HH31    1   2.711   2.886   6.965  0.5118  1.4587  1.3227
    1ACE    CH3    2   2.816   2.855   6.962  0.2312  0.5462 -0.2558
    1ACE   HH32    3   2.831   2.751   6.932 -1.6204  0.0615  0.3419
    1ACE   HH33    4   2.860   2.857   7.062  2.0032 -1.1548 -0.9479
    1ACE      C    5   2.898   2.949   6.873  0.1091 -0.2907 -0.2525
    1ACE      O    6   3.004   2.996   6.913  0.0115  0.2909  0.1241
    2ALA      N    7   2.854   2.973   6.747  0.4668  0.0045  0.5272
    2ALA      H    8   2.778   2.918   6.710  0.3514  1.4136 -1.4855
    2ALA     CA    9   2.910   3.070   6.654 -0.3022 -0.8747  0.0072
    2ALA     HA   10   2.837   3.096   6.577  1.7214  4.3119 -0.4692
    2ALA     CB   11   2.947   3.206   6.721 -0.4019 -0.2593 -0.0768
    2ALA    HB1   12   2.859   3.261   6.752 -0.3470 -0.2692  0.1030
    2ALA    HB2   13   3.012   3.196   6.809 -0.9189 -0.6471  0.2645
    2ALA    HB3   14   2.988   3.275   6.647 -0.8932 -0.8415 -0.9098
    2ALA      C   15   3.028   3.011   6.567 -0.3371  0.1357  0.4741
    2ALA      O   16   3.031   2.889   6.544  0.3194  0.3962 -0.3669
    3NME      N   17   3.100   3.096   6.493 -0.2388  0.1656  0.6896
    3NME      H   18   3.092   3.195   6.513 -1.4273  0.2092  0.1372
    3NME    CH3   19   3.200   3.055   6.394 -1.2934 -0.5863  0.1067
    3NME   HH31   20   3.165   3.016   6.299  0.5842 -0.5835 -0.6493
    3NME   HH32   21   3.255   3.140   6.353 -1.6821 -0.1238  0.5239
    3NME   HH33   22   3.279   2.987   6.426 -0.1740 -0.4029 -2.1285
  10.72160  10.72160  10.72160
