Protein
   42
    1ACE   HH31    1  10.363  12.581   7.121  0.0904  0.0809 -0.4801
    1ACE    CH3    2  10.375  12.482   7.077  0.2020 -0.1030 -0.0491
    1ACE   HH32    3  10.355  12.485   6.970  1.2792  2.3501 -0.2220
    1ACE   HH33    4  10.316  12.409   7.133  1.0740 -0.3392  0.5788
    1ACE      C    5  10.519  12.447   7.081 -0.0221  0.4141 -0.1322
    1ACE      O    6  10.607  12.536   7.084 -0.0655  0.2265 -0.5008
    2ALA      N    7  10.547  12.320   7.063 -0.5681 -0.0580  0.2224
    2ALA      H    8  10.476  12.249   7.076 -0.4123 -0.5067 -1.2217
    2ALA     CA    9  10.687  12.262   7.053 -0.4466  0.2864  0.1184
    2ALA     HA   10  10.747  12.309   6.975 -1.0642 -1.6792 -1.6390
    2ALA     CB   11  10.763  12.278   7.189  0.4595  0.2200  0.2263
    2ALA    HB1   12  10.836  12.202   7.215  0.1642  0.0856  0.6770
    2ALA    HB2   13  10.804  12.379   7.195  0.9135  0.0582 -0.1281
    2ALA    HB3   14  10.691  12.269   7.270  0.2900  0.3528  0.0923
    2ALA      C   15  10.671  12.113   7.019 -0.0147 -0.0765  0.0696
    2ALA      O   16  10.579  12.048   7.066  0.1039 -0.8246 -0.2172
    3ALA      N   17  10.748  12.059   6.922 -0.2324 -0.2655 -0.2561
    3ALA      H   18  10.733  11.961   6.899 -0.1380 -0.5229  0.7360
    3ALA     CA   19  10.855  12.123   6.849 -0.1018 -0.1217 -0.6575
    3ALA     HA   20  10.809  12.216   6.817 -2.2727 -0.8164  0.2311
    3ALA     CB   21  10.971  12.147   6.944 -0.2272  0.9782  0.5314
    3ALA    HB1   22  11.062  12.134   6.886 -0.7834 -0.7037 -0.0203
    3ALA    HB2   23  10.982  12.246   6.990  1.6227  1.0646 -0.0087
    3ALA    HB3   24  10.964  12.080   7.030 -1.2903  0.2027 -0.1410
    3ALA      C   25  10.884  12.035   6.727  0.1852 -0.5168  0.9215
    3ALA      O   26  10.876  11.914   6.743  0.2416 -0.3978 -0.5077
    4ALA      N   27  10.917  12.091   6.607 -0.2180 -0.0440  0.1119
    4ALA      H   28  10.920  12.191   6.598 -2.9970  0.0219 -1.3404
    4ALA     CA   29  10.968  12.014   6.487 -0.7775 -0.5424 -0.2706
    4ALA     HA   30  10.926  11.913   6.496  0.7019 -1.4775 -2.6056
    4ALA     CB   31  10.913  12.076   6.356  0.4356 -0.0116 -0.1166
    4ALA    HB1   32  10.945  12.016   6.270 -0.9130  2.0180 -2.1305
    4ALA    HB2   33  10.804  12.078   6.362  0.3857 -1.5080 -0.2577
    4ALA    HB3   34  10.954  12.176   6.346 -1.1107  0.5160 -1.5028
    4ALA      C   35  11.123  11.989   6.490 -0.1411 -0.0125  0.3351
    4ALA      O   36  11.200  12.059   6.559 -0.0302 -0.1294 -0.5125
    5NME      N   37  11.167  11.891   6.408 -0.1087  0.7542 -0.0295
    5NME      H   38  11.101  11.825   6.369  1.1440 -0.6095  0.0599
    5NME    CH3   39  11.314  11.859   6.399  0.5807 -0.2145 -0.3214
    5NME   HH31   40  11.349  11.834   6.299  1.4628  1.2831 -0.4175
    5NME   HH32   41  11.371  11.945   6.432 -0.7111  0.8474 -0.7276
    5NME   HH33   42  11.331  11.782   6.474  1.1277  0.5456  0.3547
  20.91516  20.91516  20.91516
