Protein
   42
    1ACE   HH31    1  11.352  10.872  11.242  1.1532  0.3506  0.9030
    1ACE    CH3    2  11.283  10.830  11.316  0.2430 -0.2125 -0.2268
    1ACE   HH32    3  11.345  10.777  11.389 -0.5469  0.6487  1.1007
    1ACE   HH33    4  11.228  10.748  11.270  0.7317 -0.7482  0.1177
    1ACE      C    5  11.180  10.936  11.362 -0.3376 -0.1199 -0.1542
    1ACE      O    6  11.174  10.983  11.469  0.1666 -0.1265  0.3142
    2ALA      N    7  11.091  10.969  11.267 -0.3413  0.8812 -0.3552
    2ALA      H    8  11.097  10.904  11.190  0.7714  0.3963  0.1085
    2ALA     CA    9  11.004  11.087  11.255 -0.2535  0.2206 -0.2146
    2ALA     HA   10  11.066  11.173  11.282 -0.8958 -0.0364  2.3889
    2ALA     CB   11  10.973  11.102  11.109 -0.2028 -0.6052  0.7758
    2ALA    HB1   12  10.936  11.009  11.067  0.3321 -0.7320  0.5672
    2ALA    HB2   13  10.907  11.187  11.095 -0.1682 -0.4978  1.2384
    2ALA    HB3   14  11.067  11.125  11.059 -0.6670  0.6495  0.4644
    2ALA      C   15  10.877  11.084  11.348  0.3650 -0.4084 -0.0731
    2ALA      O   16  10.765  11.062  11.304 -0.4115 -0.4907  0.5713
    3ALA      N   17  10.899  11.105  11.477 -0.0917  0.0125  0.2937
    3ALA      H   18  10.999  11.116  11.490  0.2932 -1.0136 -1.4464
    3ALA     CA   19  10.804  11.139  11.573  0.4869 -0.2453 -0.0343
    3ALA     HA   20  10.755  11.046  11.603 -0.7214  0.9136  1.8365
    3ALA     CB   21  10.874  11.185  11.702  0.0591  0.0394  0.3092
    3ALA    HB1   22  10.942  11.108  11.739  0.0604  0.0418  0.3161
    3ALA    HB2   23  10.938  11.272  11.687  1.7620 -0.9570  1.3981
    3ALA    HB3   24  10.806  11.223  11.778  0.2849  0.2803  0.3910
    3ALA      C   25  10.692  11.237  11.533  0.1607  0.0427  0.6484
    3ALA      O   26  10.710  11.359  11.528  0.0916 -0.0271 -0.3629
    4ALA      N   27  10.576  11.180  11.505 -0.1362  0.3314  0.6781
    4ALA      H   28  10.578  11.081  11.527  0.2976  0.3119  0.5550
    4ALA     CA   29  10.445  11.236  11.468 -0.3166  0.3141  0.1903
    4ALA     HA   30  10.372  11.158  11.491  1.3613 -1.4669 -0.3262
    4ALA     CB   31  10.399  11.351  11.559  0.1881 -0.5808  1.0867
    4ALA    HB1   32  10.295  11.368  11.531  0.7469  0.7926 -0.3363
    4ALA    HB2   33  10.415  11.343  11.666  2.5398  3.4343  1.2385
    4ALA    HB3   34  10.465  11.430  11.523 -1.4843 -0.4337 -2.0551
    4ALA      C   35  10.425  11.249  11.316  0.4497  0.2215  0.4346
    4ALA      O   36  10.324  11.300  11.269  0.0331 -0.5703  0.1561
    5NME      N   37  10.520  11.208  11.231 -0.3701 -0.2623  0.3509
    5NME      H   38  10.609  11.181  11.271 -0.8756  1.4529  2.8033
    5NME    CH3   39  10.514  11.194  11.089 -0.4263 -0.5020 -0.7361
    5NME   HH31   40  10.451  11.269  11.040 -0.1930  1.6914  2.1069
    5NME   HH32   41  10.615  11.196  11.048  0.3271  0.0765  1.0720
    5NME   HH33   42  10.469  11.098  11.068 -0.7367  0.0449 -2.8293
  20.91516  20.91516  20.91516
