Protein
   42
    1ACE   HH31    1  11.955  17.143  10.585  0.0914 -2.7973  3.2411
    1ACE    CH3    2  12.040  17.110  10.525 -0.6164  0.5734  0.0381
    1ACE   HH32    3  12.035  17.125  10.417 -0.4753  0.6836  0.0465
    1ACE   HH33    4  12.039  17.003  10.541 -0.3953  0.3297 -1.4808
    1ACE      C    5  12.172  17.164  10.573 -0.0595  0.2570 -0.2973
    1ACE      O    6  12.275  17.135  10.517 -0.1317 -0.2395  0.1381
    2ALA      N    7  12.173  17.240  10.683 -0.1926  0.1849 -0.6973
    2ALA      H    8  12.091  17.252  10.740  0.7556 -0.6530  0.9190
    2ALA     CA    9  12.302  17.308  10.718  0.2572  0.3375  0.4189
    2ALA     HA   10  12.374  17.323  10.637 -0.7001 -1.5824 -0.8658
    2ALA     CB   11  12.269  17.446  10.774  0.6737 -0.4900  0.3236
    2ALA    HB1   12  12.191  17.442  10.850  1.8571 -1.3523  1.5593
    2ALA    HB2   13  12.354  17.506  10.805 -0.3415  1.7615 -1.0346
    2ALA    HB3   14  12.227  17.514  10.700  1.4322  2.6645  2.6475
    2ALA      C   15  12.378  17.222  10.825  0.8056 -0.1524  0.2352
    2ALA      O   16  12.414  17.268  10.934 -0.3499 -0.1011  0.1875
    3ALA      N   17  12.389  17.093  10.794 -0.3674 -0.4209  0.4607
    3ALA      H   18  12.355  17.069  10.702  1.2977 -1.1256 -0.0073
    3ALA     CA   19  12.445  16.979  10.871 -0.4698 -0.9036 -0.1339
    3ALA     HA   20  12.549  16.975  10.840  0.4951  2.6799  2.2533
    3ALA     CB   21  12.420  16.990  11.022  0.5375  0.3982  0.0666
    3ALA    HB1   22  12.484  17.060  11.076 -0.1698  0.4265  0.9020
    3ALA    HB2   23  12.317  17.022  11.038  0.2628 -0.1694 -0.5197
    3ALA    HB3   24  12.432  16.898  11.080 -0.1942 -0.2812 -0.8272
    3ALA      C   25  12.360  16.852  10.835 -0.3084  0.4329 -0.2246
    3ALA      O   26  12.245  16.870  10.786  0.5461  0.0348 -0.3769
    4ALA      N   27  12.418  16.737  10.850 -0.1247 -0.5840 -0.0277
    4ALA      H   28  12.497  16.738  10.913  1.6983  1.1104 -2.2108
    4ALA     CA   29  12.358  16.606  10.818  0.6359 -0.0862 -0.1893
    4ALA     HA   30  12.259  16.631  10.781 -0.0259 -1.4067  0.6385
    4ALA     CB   31  12.439  16.538  10.706 -0.2488  0.4507  0.6677
    4ALA    HB1   32  12.407  16.435  10.689  0.2300  0.6450 -1.7463
    4ALA    HB2   33  12.422  16.583  10.608  0.3289 -2.3576 -0.8503
    4ALA    HB3   34  12.546  16.542  10.726 -0.1433 -1.4960  0.7400
    4ALA      C   35  12.338  16.525  10.944 -0.2809  0.0125 -1.3190
    4ALA      O   36  12.436  16.519  11.024  0.1098  0.1702  0.0376
    5NME      N   37  12.211  16.475  10.964  0.1147 -0.4533  0.3320
    5NME      H   38  12.137  16.496  10.899  0.6933 -1.3404 -0.6359
    5NME    CH3   39  12.164  16.422  11.092  0.8317  0.8944  0.9012
    5NME   HH31   40  12.253  16.398  11.150  2.4527  1.7164 -1.1090
    5NME   HH32   41  12.119  16.504  11.148  2.0442  0.2306  2.9904
    5NME   HH33   42  12.098  16.336  11.081  1.3462  0.5380  0.5456
  20.91516  20.91516  20.91516
