Protein
   32
    1ACE   HH31    1  11.440  13.773  11.904  1.1151  0.1675 -0.4029
    1ACE    CH3    2  11.360  13.822  11.849 -0.0269 -0.1995  0.8651
    1ACE   HH32    3  11.397  13.868  11.758  0.7171 -1.5806  0.4324
    1ACE   HH33    4  11.300  13.893  11.905  0.4297  0.7590  0.1557
    1ACE      C    5  11.267  13.711  11.801  0.0508  0.3568  0.2690
    1ACE      O    6  11.188  13.731  11.710  0.2087 -0.4358 -0.6489
    2ALA      N    7  11.257  13.603  11.881 -0.8327  0.2045  0.1068
    2ALA      H    8  11.330  13.598  11.951 -1.1447  0.3572  0.4498
    2ALA     CA    9  11.175  13.485  11.856  0.7347  0.1926  0.1151
    2ALA     HA   10  11.141  13.493  11.752 -1.4886 -0.8708  0.7008
    2ALA     CB   11  11.260  13.361  11.875 -0.0646 -0.2312 -0.0656
    2ALA    HB1   12  11.290  13.356  11.979  1.4090 -0.5462 -0.4872
    2ALA    HB2   13  11.205  13.269  11.854 -1.1424  0.3695  0.0488
    2ALA    HB3   14  11.345  13.364  11.806 -0.4262  0.2174 -0.4984
    2ALA      C   15  11.041  13.485  11.929  1.6617 -0.5736 -0.3554
    2ALA      O   16  10.962  13.394  11.921  0.1717 -0.5806  0.5958
    3ALA      N   17  11.012  13.587  12.012  0.0296 -0.2274 -0.3189
    3ALA      H   18  11.070  13.667  11.991  1.9860 -1.1376  1.1989
    3ALA     CA   19  10.880  13.613  12.075 -0.6031  0.2441 -0.0871
    3ALA     HA   20  10.825  13.519  12.071  0.3496 -0.3872  0.7397
    3ALA     CB   21  10.908  13.657  12.218 -0.1554 -0.2315 -0.1525
    3ALA    HB1   22  10.818  13.657  12.280  0.2203  0.3110  0.4037
    3ALA    HB2   23  10.969  13.583  12.269  0.3549 -0.1627 -0.6595
    3ALA    HB3   24  10.944  13.760  12.218  0.0167 -0.2911 -0.6226
    3ALA      C   25  10.794  13.720  12.001 -0.2692  0.3037 -0.1136
    3ALA      O   26  10.846  13.828  11.964 -0.2385  0.0561  0.2803
    4NME      N   27  10.665  13.690  11.998  0.8226  0.0565  0.1140
    4NME      H   28  10.634  13.601  12.034 -0.9425  0.8430  0.6043
    4NME    CH3   29  10.566  13.783  11.941 -0.2187  0.0563 -0.3388
    4NME   HH31   30  10.603  13.885  11.942 -1.7879  0.6460 -0.5400
    4NME   HH32   31  10.532  13.750  11.843  1.1424 -2.2183 -0.1222
    4NME   HH33   32  10.480  13.776  12.008  0.8260 -0.8106  0.9734
  20.99041  20.99041  20.99041
