Protein
   42
    1ACE   HH31    1   7.727  15.533  14.983 -2.6139  1.0464 -1.9723
    1ACE    CH3    2   7.668  15.441  14.988 -0.4877 -0.3235 -0.2847
    1ACE   HH32    3   7.592  15.439  14.909  0.8563  1.5969 -1.7313
    1ACE   HH33    4   7.625  15.429  15.087 -1.0849  1.0223 -0.3603
    1ACE      C    5   7.770  15.331  14.975 -1.1723  0.2887 -1.2192
    1ACE      O    6   7.759  15.260  14.881  0.0624 -0.1638  0.5139
    2ALA      N    7   7.868  15.317  15.065  0.3825 -0.5328  0.1704
    2ALA      H    8   7.877  15.386  15.139  1.0292 -0.0547 -0.3437
    2ALA     CA    9   7.950  15.195  15.088  0.4197  0.6356  0.8176
    2ALA     HA   10   8.043  15.223  15.038 -0.7767  0.4939 -1.6323
    2ALA     CB   11   7.975  15.178  15.235  0.6607  0.0394 -0.9498
    2ALA    HB1   12   8.005  15.073  15.248  1.8685  0.6375  1.7356
    2ALA    HB2   13   8.058  15.245  15.257  0.6159 -0.0514 -0.4817
    2ALA    HB3   14   7.889  15.200  15.298  0.5922 -2.3304 -0.1045
    2ALA      C   15   7.906  15.063  15.016  0.0006 -0.1492  0.0521
    2ALA      O   16   7.824  14.990  15.071  0.5051  0.2643 -0.5391
    3ALA      N   17   7.958  15.039  14.898  0.2517 -0.1116  0.2730
    3ALA      H   18   7.902  14.966  14.856 -1.0968  0.3343  1.2271
    3ALA     CA   19   8.056  15.111  14.811 -0.2898  0.3812 -1.1900
    3ALA     HA   20   8.029  15.217  14.812  0.4518  0.5672 -0.6607
    3ALA     CB   21   8.200  15.099  14.863  0.2197  0.1255  0.4198
    3ALA    HB1   22   8.231  15.176  14.934  2.9393 -0.9532  0.5151
    3ALA    HB2   23   8.206  15.005  14.917 -1.2753  0.4525  1.2338
    3ALA    HB3   24   8.271  15.095  14.780 -0.1294  0.0356  0.1188
    3ALA      C   25   8.048  15.050  14.669 -0.0344  0.3077 -0.7746
    3ALA      O   26   8.048  14.927  14.654 -0.1627 -0.2252  0.4211
    4ALA      N   27   8.048  15.129  14.569 -0.0907 -0.3692 -0.0461
    4ALA      H   28   8.057  15.226  14.595  1.4480 -1.1401  2.6829
    4ALA     CA   29   8.059  15.087  14.429 -0.0014 -0.1223 -0.1448
    4ALA     HA   30   8.102  14.986  14.425  0.5494  0.1347 -0.9491
    4ALA     CB   31   7.923  15.069  14.368  0.3396  0.0839 -0.1338
    4ALA    HB1   32   7.879  15.161  14.329 -0.8484  0.4922  1.9765
    4ALA    HB2   33   7.932  14.993  14.291  3.4012  0.1105  0.0321
    4ALA    HB3   34   7.861  15.025  14.446  1.1831  0.9891  1.0920
    4ALA      C   35   8.149  15.185  14.355 -0.1756  0.3822 -0.0586
    4ALA      O   36   8.174  15.296  14.401  0.1370  0.2823 -0.4356
    5NME      N   37   8.203  15.137  14.244 -0.0157  0.0539  0.6886
    5NME      H   38   8.207  15.036  14.244 -1.7346 -0.0420  0.9026
    5NME    CH3   39   8.281  15.220  14.149 -0.1959 -0.7999  0.1781
    5NME   HH31   40   8.337  15.160  14.078 -2.1031 -1.3740 -0.9283
    5NME   HH32   41   8.214  15.269  14.079  0.2794  0.2724  0.4518
    5NME   HH33   42   8.343  15.292  14.201 -0.3136 -0.9582  0.5454
  20.91516  20.91516  20.91516
