Protein
   32
    1ACE   HH31    1  11.894   9.735   9.137  0.1464 -0.0996 -0.7886
    1ACE    CH3    2  11.950   9.679   9.062 -0.3962 -0.5769 -0.8480
    1ACE   HH32    3  11.925   9.723   8.966  2.0611 -1.5067 -2.0120
    1ACE   HH33    4  11.923   9.574   9.057  0.6301 -0.8025 -2.1023
    1ACE      C    5  12.100   9.706   9.077 -0.3626  0.5062  0.1791
    1ACE      O    6  12.170   9.738   8.983 -0.3099  0.1497 -0.2772
    2ALA      N    7  12.149   9.705   9.202  0.0285 -0.2985 -0.2912
    2ALA      H    8  12.085   9.682   9.277  0.6765 -0.0739  0.3522
    2ALA     CA    9  12.285   9.716   9.244 -0.2320  0.2127  0.7880
    2ALA     HA   10  12.344   9.653   9.177  1.5666  1.0799  1.4796
    2ALA     CB   11  12.341   9.854   9.217 -0.0783  0.4418  0.5214
    2ALA    HB1   12  12.326   9.883   9.113  2.1665 -2.4183 -0.7527
    2ALA    HB2   13  12.286   9.924   9.279  2.5971  1.9266  1.3567
    2ALA    HB3   14  12.446   9.864   9.244  0.0057 -0.4323  0.5531
    2ALA      C   15  12.305   9.667   9.391  0.5616  0.0076  0.6273
    2ALA      O   16  12.315   9.748   9.487 -0.2341  0.1394  0.7023
    3ALA      N   17  12.285   9.540   9.410  0.1407  0.2007  0.4659
    3ALA      H   18  12.255   9.481   9.333  3.3101  0.7321 -1.3746
    3ALA     CA   19  12.296   9.481   9.543  0.1651 -0.3431 -0.2262
    3ALA     HA   20  12.308   9.559   9.618 -0.5754 -2.0184  1.7157
    3ALA     CB   21  12.162   9.418   9.580 -0.3632 -0.1541 -0.2837
    3ALA    HB1   22  12.172   9.401   9.687  1.9292  2.1216 -0.0151
    3ALA    HB2   23  12.085   9.495   9.578  1.2407  1.5601  0.9901
    3ALA    HB3   24  12.132   9.339   9.512 -0.6428 -0.0898 -0.2354
    3ALA      C   25  12.415   9.383   9.546  1.0793  0.5797 -0.2025
    3ALA      O   26  12.427   9.304   9.641  0.4499 -0.7059  0.1057
    4NME      N   27  12.496   9.377   9.441 -0.1761 -0.3051 -0.5202
    4NME      H   28  12.494   9.453   9.375  1.0979  0.5585  0.4000
    4NME    CH3   29  12.611   9.284   9.431  0.3639 -0.4594  0.4579
    4NME   HH31   30  12.698   9.344   9.458  0.1557 -0.5336  1.3401
    4NME   HH32   31  12.605   9.202   9.503  1.2673 -0.5736  0.4068
    4NME   HH33   32  12.620   9.245   9.330  0.5594  2.2513 -0.6456
  20.99041  20.99041  20.99041
