Protein
   42
    1ACE   HH31    1  12.726  11.014  15.603 -1.0520 -0.2002  0.4822
    1ACE    CH3    2  12.748  11.104  15.659 -0.5813 -0.0163  0.0141
    1ACE   HH32    3  12.688  11.127  15.747  0.0916  0.9772  0.2238
    1ACE   HH33    4  12.731  11.182  15.585  0.5221 -0.3830 -0.6537
    1ACE      C    5  12.895  11.118  15.697  0.5593 -0.1919  0.0246
    1ACE      O    6  12.940  11.229  15.710 -0.4019  0.4273  0.8998
    2ALA      N    7  12.961  11.007  15.729 -0.2202 -0.2383 -0.0376
    2ALA      H    8  12.920  10.916  15.715  1.3849 -0.9591 -0.3037
    2ALA     CA    9  13.105  11.000  15.765 -0.0349 -0.2618 -0.2695
    2ALA     HA   10  13.159  11.083  15.720  2.3938 -1.1997  0.7197
    2ALA     CB   11  13.110  11.022  15.920  0.5109 -0.2131  0.2218
    2ALA    HB1   12  13.205  10.995  15.967 -0.9401 -1.1635  2.7454
    2ALA    HB2   13  13.095  11.126  15.948 -0.5644 -0.9555  2.6418
    2ALA    HB3   14  13.029  10.978  15.977  0.2451  2.7006  2.3049
    2ALA      C   15  13.164  10.861  15.716  0.4173 -0.1833 -0.7935
    2ALA      O   16  13.084  10.768  15.701 -0.1313  0.4540 -0.1190
    3ALA      N   17  13.294  10.840  15.701 -0.1828  0.7166  0.9535
    3ALA      H   18  13.308  10.753  15.651 -1.3407 -0.0293  1.8759
    3ALA     CA   19  13.410  10.931  15.708  0.1778 -0.3186  0.4503
    3ALA     HA   20  13.419  10.962  15.812 -0.0552 -1.0072  0.6859
    3ALA     CB   21  13.536  10.847  15.670  0.7180  0.6967  0.0676
    3ALA    HB1   22  13.544  10.775  15.752  0.9048  0.5249 -0.1009
    3ALA    HB2   23  13.515  10.788  15.581 -1.5932  1.5568 -0.0243
    3ALA    HB3   24  13.620  10.913  15.652  0.7294  0.4679 -0.7729
    3ALA      C   25  13.393  11.055  15.605 -0.6194 -0.7288  0.7471
    3ALA      O   26  13.325  11.049  15.507  0.2447  0.1036  0.4183
    4ALA      N   27  13.474  11.162  15.628  0.3907  0.3249  0.4411
    4ALA      H   28  13.537  11.153  15.707 -2.9654 -0.6059  3.2571
    4ALA     CA   29  13.480  11.272  15.541  0.0203 -0.1626  0.5201
    4ALA     HA   30  13.460  11.248  15.437  0.7281  0.0675  0.3123
    4ALA     CB   31  13.386  11.388  15.579 -0.4237  0.1012 -0.5485
    4ALA    HB1   32  13.421  11.437  15.671 -0.9552 -0.4771 -0.0309
    4ALA    HB2   33  13.375  11.455  15.494  0.2561 -1.3242 -1.7883
    4ALA    HB3   34  13.283  11.355  15.587 -0.1939 -0.4473  0.2822
    4ALA      C   35  13.617  11.330  15.535  0.8173  0.2308 -0.0312
    4ALA      O   36  13.702  11.308  15.619 -0.1504 -0.1492 -0.0405
    5NME      N   37  13.639  11.422  15.444  0.0075 -0.0960  0.3432
    5NME      H   38  13.560  11.449  15.386  0.8812  1.0606 -0.3565
    5NME    CH3   39  13.764  11.493  15.418  0.1094  0.7331 -0.4418
    5NME   HH31   40  13.820  11.486  15.511 -2.1260  2.3258  1.1495
    5NME   HH32   41  13.828  11.441  15.347 -1.0080  1.9589 -2.4549
    5NME   HH33   42  13.751  11.599  15.392  0.1957  0.0863 -3.4437
  20.91516  20.91516  20.91516
