Protein
   42
    1ACE   HH31    1   9.836   6.041  10.385  0.2225 -0.2409 -0.3186
    1ACE    CH3    2   9.940   6.016  10.363  0.2979  0.2406 -0.5263
    1ACE   HH32    3   9.952   5.961  10.270  3.6264 -0.6921  0.3298
    1ACE   HH33    4   9.984   5.951  10.438 -1.2471 -0.6193 -0.3017
    1ACE      C    5  10.001   6.153  10.363 -0.1371  0.2183 -0.5118
    1ACE      O    6   9.962   6.235  10.443 -0.2801  0.6261 -0.4708
    2ALA      N    7  10.102   6.175  10.284 -0.1281 -0.1577  0.1279
    2ALA      H    8  10.128   6.096  10.226  0.9631 -0.7417  1.3531
    2ALA     CA    9  10.147   6.302  10.230 -0.2017  0.3890 -0.2671
    2ALA     HA   10  10.189   6.337  10.324 -0.0915  0.6479 -0.4108
    2ALA     CB   11  10.260   6.279  10.121 -0.4066 -0.4489 -0.6884
    2ALA    HB1   12  10.235   6.206  10.044  0.8237 -0.8021 -0.7787
    2ALA    HB2   13  10.286   6.368  10.064 -0.8561  0.1518  0.0194
    2ALA    HB3   14  10.341   6.237  10.181 -0.6896  1.5288  1.2630
    2ALA      C   15  10.041   6.402  10.185  0.1745 -0.2504  0.2310
    2ALA      O   16   9.962   6.374  10.094 -0.1894  0.0410  0.5834
    3ALA      N   17  10.038   6.526  10.234  0.0381 -0.0641  0.2472
    3ALA      H   18   9.963   6.583  10.198 -0.1645 -1.0682 -1.0283
    3ALA     CA   19  10.140   6.589  10.325  0.6860 -0.3534 -0.6071
    3ALA     HA   20  10.238   6.540  10.322  0.4294 -0.8520 -0.9323
    3ALA     CB   21  10.149   6.740  10.282 -0.4470  0.6457  0.0773
    3ALA    HB1   22  10.207   6.788  10.361  0.4116  0.8322 -0.6535
    3ALA    HB2   23  10.181   6.753  10.179  1.7241 -1.3684  0.4118
    3ALA    HB3   24  10.056   6.796  10.291 -0.7327  0.3235 -0.7052
    3ALA      C   25  10.096   6.590  10.476  0.7246  0.5503  0.4972
    3ALA      O   26  10.172   6.532  10.553 -0.5206 -0.0253  0.3105
    4ALA      N   27   9.980   6.650  10.509 -0.4737  0.2199 -0.2667
    4ALA      H   28   9.924   6.697  10.440 -0.0121  2.1276  0.6018
    4ALA     CA   29   9.937   6.667  10.652  0.0647  0.1986 -0.1222
    4ALA     HA   30  10.024   6.678  10.716 -2.1632  2.3323  2.8039
    4ALA     CB   31   9.867   6.804  10.653 -0.0459  0.0638 -0.6165
    4ALA    HB1   32   9.930   6.885  10.616 -1.0048  2.1787  1.9960
    4ALA    HB2   33   9.767   6.800  10.610 -1.1470 -0.8209  1.8482
    4ALA    HB3   34   9.853   6.822  10.760  0.7725 -1.0930 -0.2820
    4ALA      C   35   9.855   6.555  10.719  0.0226  0.8809 -0.1517
    4ALA      O   36   9.776   6.586  10.803  0.0858  0.3271  0.0275
    5NME      N   37   9.872   6.423  10.677 -0.6225 -0.0584  0.4239
    5NME      H   38   9.940   6.402  10.606 -0.6277  1.9658 -0.2555
    5NME    CH3   39   9.802   6.306  10.745  0.7632  0.1159 -0.0110
    5NME   HH31   40   9.828   6.206  10.710 -1.4638 -0.9095  1.0562
    5NME   HH32   41   9.828   6.312  10.851 -1.0773  1.3250  0.4197
    5NME   HH33   42   9.696   6.310  10.722  0.7410  0.0546  0.0824
  20.91516  20.91516  20.91516
