Protein
   42
    1ACE   HH31    1   7.031  11.101   9.382  0.0897 -2.2962 -0.0347
    1ACE    CH3    2   6.955  11.135   9.452  0.5502 -0.2894 -0.4473
    1ACE   HH32    3   6.875  11.189   9.401  0.0224 -0.4736  0.1624
    1ACE   HH33    4   7.006  11.189   9.531 -1.4525  1.2677 -0.1167
    1ACE      C    5   6.899  11.011   9.506  0.3943 -0.4954 -0.7622
    1ACE      O    6   6.893  10.910   9.436  0.0382 -0.1076 -0.0574
    2ALA      N    7   6.836  11.014   9.629 -0.1188  0.3005  0.4088
    2ALA      H    8   6.855  11.096   9.685 -1.3936  0.8439  0.0917
    2ALA     CA    9   6.774  10.891   9.694 -0.6321  0.5832 -0.4258
    2ALA     HA   10   6.758  10.817   9.616  0.6209 -0.6902  0.4926
    2ALA     CB   11   6.882  10.824   9.785  0.4496 -0.4910 -0.2966
    2ALA    HB1   12   6.853  10.721   9.802  0.1432 -0.6214 -1.4839
    2ALA    HB2   13   6.981  10.828   9.741  1.5031  0.7116  1.9925
    2ALA    HB3   14   6.892  10.877   9.880 -1.0776 -2.4794  1.0486
    2ALA      C   15   6.634  10.907   9.766  0.2829 -0.3129 -0.9690
    2ALA      O   16   6.619  10.874   9.886  0.5969  0.3254 -0.0985
    3ALA      N   17   6.531  10.969   9.697  0.2099  0.1649  0.0823
    3ALA      H   18   6.441  10.983   9.743  0.3331 -0.1445  0.4215
    3ALA     CA   19   6.528  10.985   9.546  0.3509  0.1436  0.1717
    3ALA     HA   20   6.618  10.939   9.503  2.0330  0.4481  3.1317
    3ALA     CB   21   6.407  10.897   9.508  0.3868 -0.3010  0.5622
    3ALA    HB1   22   6.315  10.923   9.560 -0.5510  0.5306 -1.4126
    3ALA    HB2   23   6.390  10.909   9.401  0.9723  2.3009  0.6919
    3ALA    HB3   24   6.424  10.790   9.521  0.0388 -0.7019 -1.8023
    3ALA      C   25   6.526  11.127   9.499 -0.5008 -0.2525  0.5472
    3ALA      O   26   6.488  11.159   9.388 -0.0505 -0.6108 -0.5050
    4ALA      N   27   6.573  11.215   9.585  0.0678 -0.1781  0.5751
    4ALA      H   28   6.608  11.186   9.675  0.3322 -2.4694 -0.1926
    4ALA     CA   29   6.589  11.357   9.546 -0.2644  0.9914 -0.0350
    4ALA     HA   30   6.578  11.363   9.438 -0.0513  3.3137  0.0026
    4ALA     CB   31   6.477  11.446   9.602 -0.1861  0.0234  0.1624
    4ALA    HB1   32   6.493  11.468   9.707  2.3523 -2.7076  0.4891
    4ALA    HB2   33   6.482  11.545   9.556  0.4430 -0.1469 -0.1765
    4ALA    HB3   34   6.377  11.409   9.579 -0.3698  0.9632 -0.6138
    4ALA      C   35   6.733  11.399   9.585 -0.3587 -0.1957  0.1301
    4ALA      O   36   6.793  11.335   9.667  0.0312 -0.0831  0.2729
    5NME      N   37   6.789  11.502   9.522 -0.0802  0.3357  0.1006
    5NME      H   38   6.734  11.544   9.448 -0.5264 -1.7452 -0.8407
    5NME    CH3   39   6.922  11.551   9.556  0.2039  0.5177  0.7381
    5NME   HH31   40   6.925  11.617   9.643  1.0485 -0.4115  1.4365
    5NME   HH32   41   6.998  11.476   9.578 -0.5108 -0.3576  0.3062
    5NME   HH33   42   6.967  11.604   9.472  0.1959 -2.5880 -1.3827
  20.91516  20.91516  20.91516
