Protein
   32
    1ACE   HH31    1  16.604  14.240   4.645  0.4176  1.6246 -1.6622
    1ACE    CH3    2  16.506  14.283   4.666 -0.0225  0.0260 -0.1035
    1ACE   HH32    3  16.494  14.378   4.614  0.3775  0.4309  0.5356
    1ACE   HH33    4  16.493  14.306   4.771 -1.9778 -1.8810  0.1351
    1ACE      C    5  16.384  14.198   4.630  0.4890  0.2362 -0.5046
    1ACE      O    6  16.283  14.204   4.702 -0.4647 -0.2798  0.6992
    2ALA      N    7  16.396  14.124   4.524 -0.4317 -0.0295 -0.2446
    2ALA      H    8  16.489  14.121   4.484 -0.2913 -1.3475  0.1471
    2ALA     CA    9  16.299  14.044   4.452 -0.0462 -0.2086  0.3662
    2ALA     HA   10  16.206  14.029   4.508 -0.5788 -1.6335 -0.8339
    2ALA     CB   11  16.257  14.120   4.319  0.2178 -0.8970 -0.3557
    2ALA    HB1   12  16.334  14.105   4.244 -0.0792 -0.2301 -0.8052
    2ALA    HB2   13  16.167  14.074   4.280  0.4830  0.4926 -2.7526
    2ALA    HB3   14  16.246  14.225   4.346  1.0574 -0.3149 -2.0837
    2ALA      C   15  16.352  13.898   4.437 -0.0770 -0.2210  0.4030
    2ALA      O   16  16.342  13.840   4.330  0.4006  0.5735  0.2322
    3ALA      N   17  16.388  13.837   4.542 -0.1385  0.5379 -0.2259
    3ALA      H   18  16.392  13.889   4.629 -1.8292  0.5397 -0.1171
    3ALA     CA   19  16.441  13.694   4.551 -0.0369  0.3418 -0.1801
    3ALA     HA   20  16.468  13.680   4.656  1.8152  1.7793 -0.4089
    3ALA     CB   21  16.343  13.591   4.501  0.4024  0.5603  0.0913
    3ALA    HB1   22  16.314  13.609   4.398 -1.2491  1.0036  0.6040
    3ALA    HB2   23  16.366  13.487   4.524 -0.1904  0.7407  1.6629
    3ALA    HB3   24  16.253  13.602   4.563 -0.4940 -1.7850 -0.6934
    3ALA      C   25  16.578  13.678   4.485 -0.6509 -0.6564  0.6467
    3ALA      O   26  16.675  13.664   4.557 -0.6205 -0.4064 -0.8364
    4NME      N   27  16.584  13.687   4.347 -0.0340 -0.2376  0.0451
    4NME      H   28  16.496  13.697   4.300 -0.1705  1.7390  0.6189
    4NME    CH3   29  16.705  13.660   4.264 -0.6563  0.9582  0.2432
    4NME   HH31   30  16.699  13.683   4.157 -0.5370  0.6118  0.1596
    4NME   HH32   31  16.790  13.721   4.294  1.2496 -1.7005  0.6252
    4NME   HH33   32  16.737  13.556   4.267  1.2913  1.4837 -0.2578
  20.99041  20.99041  20.99041
