Protein
   42
    1ACE   HH31    1   4.978  11.949   0.208 -1.1662 -0.8941 -1.1605
    1ACE    CH3    2   5.028  11.852   0.202  0.3858 -0.1929 -0.2502
    1ACE   HH32    3   4.945  11.790   0.167  0.6477  0.2294 -1.7389
    1ACE   HH33    4   5.067  11.827   0.300  0.8866  0.6485 -0.2181
    1ACE      C    5   5.137  11.840   0.104 -0.4689  0.6436 -0.1713
    1ACE      O    6   5.213  11.746   0.097  0.6202  0.5232 -0.2194
    2ALA      N    7   5.158  11.940   0.023  0.5599 -0.2286  0.0053
    2ALA      H    8   5.095  12.019   0.022 -0.7172 -1.1823 -1.3454
    2ALA     CA    9   5.250  11.939  -0.093 -0.1474 -0.9862 -0.0965
    2ALA     HA   10   5.351  11.924  -0.057 -0.3038 -2.5038 -0.1718
    2ALA     CB   11   5.215  11.829  -0.184 -0.0073  0.5446 -0.2307
    2ALA    HB1   12   5.256  11.732  -0.156 -1.9054 -0.6891 -1.4248
    2ALA    HB2   13   5.107  11.821  -0.199 -0.1309 -0.8045  1.2173
    2ALA    HB3   14   5.263  11.861  -0.276 -1.2035 -1.2796 -1.5773
    2ALA      C   15   5.223  12.078  -0.156  0.0161 -0.3715  0.1229
    2ALA      O   16   5.109  12.130  -0.153  0.5434 -0.3963 -0.3229
    3ALA      N   17   5.316  12.138  -0.230 -0.2398 -0.2509  0.9840
    3ALA      H   18   5.289  12.223  -0.276  0.9755  0.7885  2.1024
    3ALA     CA   19   5.458  12.100  -0.232  0.1378 -0.7971  0.8240
    3ALA     HA   20   5.489  12.190  -0.285  0.1993 -0.7803  0.8831
    3ALA     CB   21   5.530  12.104  -0.089  0.4335 -0.6433 -0.1811
    3ALA    HB1   22   5.551  12.004  -0.050 -1.2210 -1.2351 -0.7224
    3ALA    HB2   23   5.622  12.161  -0.097 -0.1921  0.6048  1.0587
    3ALA    HB3   24   5.462  12.145  -0.015 -0.3089 -2.4984  0.2218
    3ALA      C   25   5.510  12.002  -0.338  0.4227  0.4377  0.1318
    3ALA      O   26   5.614  11.942  -0.312 -0.4671 -0.1513 -0.0729
    4ALA      N   27   5.435  11.989  -0.447  0.3414  0.6614  0.3072
    4ALA      H   28   5.359  12.054  -0.464 -0.2832 -0.0579  0.3075
    4ALA     CA   29   5.490  11.928  -0.571 -0.3356  0.1357  0.1821
    4ALA     HA   30   5.525  11.828  -0.548  3.0974  1.1474 -0.1826
    4ALA     CB   31   5.377  11.911  -0.668  0.1660  0.3816  0.8746
    4ALA    HB1   32   5.329  12.008  -0.672  0.7242  0.6367 -0.0100
    4ALA    HB2   33   5.410  11.883  -0.768  0.0900 -0.3708  1.0518
    4ALA    HB3   34   5.304  11.838  -0.632  0.0255  0.1226  0.0761
    4ALA      C   35   5.613  12.008  -0.617 -0.2027  0.9635 -0.5087
    4ALA      O   36   5.598  12.118  -0.653  0.1335  0.0863 -0.3263
    5NME      N   37   5.726  11.933  -0.635 -0.6828  0.3587 -0.3684
    5NME      H   38   5.730  11.842  -0.591 -0.9530  0.3177 -0.4271
    5NME    CH3   39   5.847  11.980  -0.705 -0.1384  0.2344 -0.0339
    5NME   HH31   40   5.920  11.899  -0.703 -1.5563 -1.1840 -2.3503
    5NME   HH32   41   5.817  11.999  -0.808 -0.5449  3.2732  0.5637
    5NME   HH33   42   5.895  12.072  -0.671  0.9615 -0.3784  0.1291
  20.91516  20.91516  20.91516
