Protein
   42
    1ACE   HH31    1   9.551   4.374   9.852 -1.0064 -0.6390  1.0800
    1ACE    CH3    2   9.610   4.295   9.899  0.0437 -0.3564  0.3029
    1ACE   HH32    3   9.662   4.362   9.968 -3.1126  1.5228  1.0718
    1ACE   HH33    4   9.681   4.252   9.829  1.3038  0.2135  1.1723
    1ACE      C    5   9.522   4.194   9.961  0.6027  0.3016  0.4754
    1ACE      O    6   9.559   4.078   9.943 -0.9143 -0.1257 -0.3489
    2ALA      N    7   9.413   4.237  10.033  0.4131  0.5327 -0.2598
    2ALA      H    8   9.388   4.334  10.041 -0.0195  0.4332 -0.3673
    2ALA     CA    9   9.314   4.141  10.092 -0.8395 -0.5923  0.0337
    2ALA     HA   10   9.377   4.078  10.155  2.0660  0.2876 -1.8250
    2ALA     CB   11   9.220   4.216  10.194 -0.0689  0.2634 -0.2449
    2ALA    HB1   12   9.169   4.145  10.259  1.7319 -2.2428 -1.4082
    2ALA    HB2   13   9.288   4.272  10.258  0.7425 -2.2036  1.1955
    2ALA    HB3   14   9.149   4.278  10.138 -2.7629 -2.0756  0.3648
    2ALA      C   15   9.239   4.044  10.004  0.1835 -0.3710  0.6587
    2ALA      O   16   9.128   4.001  10.033  0.1292 -0.3117  0.0211
    3ALA      N   17   9.305   3.992   9.895 -0.4627  0.5045 -0.0661
    3ALA      H   18   9.400   4.027   9.892  0.5006 -1.5597  2.2252
    3ALA     CA   19   9.274   3.887   9.800 -0.2689  0.1039  0.3498
    3ALA     HA   20   9.295   3.926   9.701  2.7051  2.6357  1.7698
    3ALA     CB   21   9.369   3.767   9.839  0.2823 -0.5705  0.0541
    3ALA    HB1   22   9.330   3.673   9.801 -0.3758 -0.4069  0.3154
    3ALA    HB2   23   9.471   3.786   9.805 -0.1868 -0.4203 -1.3491
    3ALA    HB3   24   9.375   3.754   9.947 -3.1504  2.4984  0.7615
    3ALA      C   25   9.129   3.827   9.787 -0.4907 -0.5223 -0.2719
    3ALA      O   26   9.084   3.821   9.675 -0.0303  0.2723  0.2213
    4ALA      N   27   9.071   3.767   9.889  1.0561  0.1800  0.2128
    4ALA      H   28   9.113   3.767   9.981  2.2629  0.6944 -0.3132
    4ALA     CA   29   8.933   3.711   9.876 -0.4637 -0.6819  0.3693
    4ALA     HA   30   8.901   3.709   9.772  0.8857 -2.1153 -0.0477
    4ALA     CB   31   8.926   3.564   9.931  0.0865  0.4479  0.1553
    4ALA    HB1   32   8.819   3.541   9.932 -0.2905  1.7322 -2.0849
    4ALA    HB2   33   8.966   3.496   9.856  1.6919 -0.4563  1.7704
    4ALA    HB3   34   8.971   3.547  10.029 -0.4457 -1.4370  0.1153
    4ALA      C   35   8.826   3.796   9.953 -0.4171 -0.2904  0.9151
    4ALA      O   36   8.709   3.758   9.960 -0.1362 -0.5119 -0.6087
    5NME      N   37   8.866   3.916  10.000 -0.2527 -0.1521  0.2832
    5NME      H   38   8.962   3.945   9.989 -0.5438  0.7203 -0.0014
    5NME    CH3   39   8.785   4.009  10.073 -0.0297  0.0952  0.2761
    5NME   HH31   40   8.705   4.034  10.003  1.6541  0.9830 -1.4099
    5NME   HH32   41   8.746   3.952  10.158 -1.5658  0.7471  0.0452
    5NME   HH33   42   8.839   4.099  10.101  0.6113 -0.0463 -0.4500
  20.91516  20.91516  20.91516
