Protein
   32
    1ACE   HH31    1  11.049   6.312  11.016  0.4764  0.1538  1.3909
    1ACE    CH3    2  10.961   6.252  11.038  0.1410 -0.0159 -0.3127
    1ACE   HH32    3  10.978   6.146  11.056  0.4391  0.1750  0.5810
    1ACE   HH33    4  10.891   6.254  10.954  0.9125 -0.4575 -0.9820
    1ACE      C    5  10.901   6.315  11.164  0.2843 -0.5734  0.4717
    1ACE      O    6  10.797   6.380  11.148 -0.3259  0.0503 -0.3044
    2ALA      N    7  10.960   6.294  11.281  1.0379  0.2919  0.3557
    2ALA      H    8  11.052   6.252  11.278  1.1508  0.3237  2.1785
    2ALA     CA    9  10.920   6.347  11.404  0.0848 -0.4481 -0.2824
    2ALA     HA   10  10.853   6.427  11.373 -0.2882 -1.3101 -1.7777
    2ALA     CB   11  10.845   6.242  11.486 -0.0428  0.6150  0.2791
    2ALA    HB1   12  10.914   6.160  11.507  0.8461  0.9474 -1.2018
    2ALA    HB2   13  10.798   6.280  11.576 -1.4953 -1.3144  0.3824
    2ALA    HB3   14  10.759   6.214  11.425  1.8010 -0.3227 -2.0190
    2ALA      C   15  11.043   6.422  11.467 -0.3294  0.7358 -0.7030
    2ALA      O   16  11.128   6.468  11.401  0.0324 -0.1454 -0.1671
    3ALA      N   17  11.050   6.426  11.597 -0.1331  0.2480  0.0037
    3ALA      H   18  10.962   6.416  11.645  0.8906 -1.9589  1.5770
    3ALA     CA   19  11.151   6.489  11.685  0.4315 -0.6438  0.3589
    3ALA     HA   20  11.209   6.560  11.626 -0.2664 -0.4687 -0.1386
    3ALA     CB   21  11.074   6.591  11.781  0.5409 -0.1567  0.2597
    3ALA    HB1   22  10.994   6.537  11.831 -1.9178  1.7115 -1.4277
    3ALA    HB2   23  11.135   6.651  11.849 -0.1803  2.4210 -1.1925
    3ALA    HB3   24  11.012   6.660  11.723 -0.5257 -2.0247 -0.9372
    3ALA      C   25  11.252   6.395  11.748  0.0107  0.4009 -0.3307
    3ALA      O   26  11.318   6.426  11.845 -0.2429 -0.3083  0.6251
    4NME      N   27  11.247   6.270  11.701 -0.2996  0.4433  0.0834
    4NME      H   28  11.197   6.247  11.616 -0.5476 -1.6496  0.7198
    4NME    CH3   29  11.334   6.156  11.751 -0.1669 -0.1375 -0.0364
    4NME   HH31   30  11.281   6.067  11.720 -1.7399  0.9032 -0.5039
    4NME   HH32   31  11.439   6.176  11.728 -0.0712  2.1432  1.8840
    4NME   HH33   32  11.335   6.167  11.860  1.1463  1.1452 -0.1456
  20.99041  20.99041  20.99041
