Protein
   42
    1ACE   HH31    1  11.376   8.957   5.047  1.3641 -1.0018 -1.5929
    1ACE    CH3    2  11.424   8.892   5.120  0.7650  0.5697  0.2629
    1ACE   HH32    3  11.351   8.831   5.174  1.4533  0.3883  1.0151
    1ACE   HH33    4  11.487   8.942   5.193  1.2109  0.6270 -0.1530
    1ACE      C    5  11.520   8.811   5.040 -0.0111  0.2726  0.5557
    1ACE      O    6  11.487   8.700   5.004 -0.8957  0.0969  0.1665
    2ALA      N    7  11.643   8.856   5.022  0.2340  0.5021  0.8082
    2ALA      H    8  11.679   8.932   5.079  0.9100  0.0349  0.9982
    2ALA     CA    9  11.741   8.794   4.927 -0.9326  1.2316 -0.9348
    2ALA     HA   10  11.825   8.863   4.924 -0.7565  1.0291 -0.7645
    2ALA     CB   11  11.796   8.667   4.988  0.1933  0.1442  0.1991
    2ALA    HB1   12  11.877   8.632   4.924 -0.8439  2.0602 -2.3442
    2ALA    HB2   13  11.830   8.690   5.089 -1.1931 -1.8449  1.2058
    2ALA    HB3   14  11.719   8.589   4.994 -0.1403  0.5685  1.9676
    2ALA      C   15  11.692   8.790   4.785  0.1790 -0.2058 -0.0807
    2ALA      O   16  11.715   8.886   4.717 -0.3947 -0.0851 -0.8109
    3ALA      N   17  11.625   8.688   4.734  0.3756  0.3783  0.2530
    3ALA      H   18  11.618   8.605   4.791 -0.4523 -0.2057 -0.6569
    3ALA     CA   19  11.541   8.681   4.612 -0.7940  0.1353 -0.2556
    3ALA     HA   20  11.611   8.637   4.541  0.2419 -1.3162  1.5823
    3ALA     CB   21  11.430   8.583   4.637  0.0800 -0.2932  0.2414
    3ALA    HB1   22  11.354   8.639   4.691 -1.0498 -1.1912 -0.3420
    3ALA    HB2   23  11.384   8.539   4.548  0.4443  3.7458 -2.1791
    3ALA    HB3   24  11.461   8.505   4.707 -0.5894 -1.4028 -0.6564
    3ALA      C   25  11.486   8.805   4.546 -0.4526 -0.7834 -0.6831
    3ALA      O   26  11.463   8.790   4.425 -0.0449 -0.4593  0.8472
    4ALA      N   27  11.454   8.920   4.614 -0.9148  0.5683  0.2093
    4ALA      H   28  11.480   8.918   4.711  1.4699 -2.1311 -0.3292
    4ALA     CA   29  11.400   9.046   4.566 -0.4892 -0.2910 -0.3730
    4ALA     HA   30  11.472   9.093   4.499  0.3281 -1.0544 -0.0281
    4ALA     CB   31  11.267   9.016   4.503  0.2858  0.3221  0.2774
    4ALA    HB1   32  11.239   9.113   4.462  1.1202 -0.3161 -1.8761
    4ALA    HB2   33  11.270   8.947   4.419 -2.6652  2.1423 -1.5812
    4ALA    HB3   34  11.197   8.973   4.576 -0.6738 -0.5410 -1.0928
    4ALA      C   35  11.379   9.145   4.688  0.1975  0.4924  0.0970
    4ALA      O   36  11.367   9.100   4.806 -0.3458 -0.0460  0.3292
    5NME      N   37  11.379   9.280   4.667 -0.1092  0.3351 -0.1035
    5NME      H   38  11.383   9.303   4.569 -1.1095 -2.3223 -0.8660
    5NME    CH3   39  11.382   9.380   4.770  0.0249 -0.0166  0.1072
    5NME   HH31   40  11.284   9.402   4.811  1.2166 -0.5068  3.5457
    5NME   HH32   41  11.449   9.357   4.853 -0.1100  2.4070  0.9717
    5NME   HH33   42  11.434   9.468   4.730  0.3441 -0.8029 -1.2967
  20.91516  20.91516  20.91516
