Protein
   22
    1ACE   HH31    1   7.621   7.449   4.752  0.8664 -0.0879  0.5741
    1ACE    CH3    2   7.652   7.550   4.727 -0.8019  0.3351  0.0973
    1ACE   HH32    3   7.568   7.607   4.687 -0.5030  1.0688  0.5077
    1ACE   HH33    4   7.720   7.529   4.644 -0.9632 -2.0166  0.4810
    1ACE      C    5   7.705   7.613   4.848 -0.0509 -0.7304 -0.3477
    1ACE      O    6   7.805   7.682   4.831  0.3594 -0.3058 -0.2911
    2ALA      N    7   7.633   7.594   4.964 -0.1414 -0.5429  0.1179
    2ALA      H    8   7.544   7.544   4.959  0.9487 -2.8496  1.7893
    2ALA     CA    9   7.682   7.630   5.096 -0.0698  0.2414  0.0145
    2ALA     HA   10   7.789   7.618   5.083 -0.4102 -0.5940 -2.8502
    2ALA     CB   11   7.643   7.777   5.125  0.6515 -0.4403  0.5029
    2ALA    HB1   12   7.660   7.835   5.034 -1.0000  0.3509  0.6521
    2ALA    HB2   13   7.535   7.781   5.142  0.3363  1.3129 -1.4169
    2ALA    HB3   14   7.705   7.812   5.207  2.3271 -1.0405 -0.4554
    2ALA      C   15   7.632   7.538   5.210  0.1856 -0.8408 -0.0646
    2ALA      O   16   7.527   7.488   5.203  0.9224  0.2594 -0.2403
    3NME      N   17   7.719   7.509   5.303 -0.1167  0.0694  0.4953
    3NME      H   18   7.815   7.540   5.294 -0.5190  1.7618  1.6034
    3NME    CH3   19   7.688   7.420   5.417 -0.2693  0.3132  0.2519
    3NME   HH31   20   7.739   7.324   5.402  0.2079  0.8259 -1.8317
    3NME   HH32   21   7.732   7.459   5.509 -0.2807  1.7311 -0.3073
    3NME   HH33   22   7.581   7.403   5.428 -0.3192 -1.4557 -2.1152
  10.72160  10.72160  10.72160
