Protein
   42
    1ACE   HH31    1  10.923   9.882  10.858 -0.0541  0.3223 -1.2714
    1ACE    CH3    2  10.864   9.974  10.852  0.1280  0.6261  0.8001
    1ACE   HH32    3  10.831  10.013  10.948 -2.6159 -1.0450  0.6533
    1ACE   HH33    4  10.770   9.938  10.809  1.7285  0.2640 -2.7238
    1ACE      C    5  10.917  10.080  10.764 -0.2767 -0.1380 -0.1725
    1ACE      O    6  10.993  10.053  10.673 -0.8345  0.1915  0.0958
    2ALA      N    7  10.867  10.202  10.797 -0.2443 -0.0567 -0.5095
    2ALA      H    8  10.802  10.199  10.874  1.2228  2.1022  0.9128
    2ALA     CA    9  10.885  10.322  10.728  0.0478 -0.2755  1.0946
    2ALA     HA   10  10.960  10.299  10.652 -0.7351  1.9713 -0.4548
    2ALA     CB   11  10.766  10.358  10.638 -0.3354 -0.2107 -0.1105
    2ALA    HB1   12  10.730  10.274  10.578 -1.9893  1.8699 -2.2274
    2ALA    HB2   13  10.687  10.391  10.705  0.0507  1.3385 -0.3836
    2ALA    HB3   14  10.793  10.440  10.572  0.0520  0.5804  1.0052
    2ALA      C   15  10.943  10.446  10.810  0.2083 -0.0196  0.1800
    2ALA      O   16  11.016  10.524  10.746 -0.1049  0.4221  0.2301
    3ALA      N   17  10.920  10.472  10.940 -0.7650  0.0085 -0.5376
    3ALA      H   18  10.951  10.561  10.976  1.1505 -1.6182  2.1155
    3ALA     CA   19  10.841  10.389  11.033 -0.5589 -0.2765  0.4398
    3ALA     HA   20  10.834  10.447  11.125 -1.9839 -0.3895  0.4262
    3ALA     CB   21  10.692  10.380  10.998 -0.0309 -0.5810  0.0146
    3ALA    HB1   22  10.667  10.470  10.941 -1.1509 -0.5851  0.4646
    3ALA    HB2   23  10.673  10.300  10.927  0.1254 -0.7936  0.2071
    3ALA    HB3   24  10.632  10.379  11.090  0.7266 -2.8839  0.5436
    3ALA      C   25  10.913  10.260  11.092 -0.2891 -0.2932  0.4909
    3ALA      O   26  10.849  10.177  11.156  0.4217 -0.0457  0.1934
    4ALA      N   27  11.042  10.246  11.066 -0.2398 -0.2521  0.1179
    4ALA      H   28  11.086  10.320  11.015  1.2588 -0.9820  0.3210
    4ALA     CA   29  11.147  10.147  11.109  0.2191  0.7338  0.3931
    4ALA     HA   30  11.226  10.154  11.034 -0.1624 -0.2245 -0.1304
    4ALA     CB   31  11.209  10.182  11.241 -0.5035 -0.3334 -0.1715
    4ALA    HB1   32  11.290  10.112  11.260  0.1281  0.0847 -1.1987
    4ALA    HB2   33  11.242  10.286  11.239  0.2338 -0.4997  1.7151
    4ALA    HB3   34  11.137  10.178  11.322  0.4398  3.5848  1.0602
    4ALA      C   35  11.101   9.992  11.116 -0.7738 -1.1973 -0.1415
    4ALA      O   36  11.002   9.961  11.180  0.3212 -0.0073  0.5280
    5NME      N   37  11.185   9.893  11.069 -0.4205 -0.4169  0.4311
    5NME      H   38  11.272   9.919  11.026 -1.4333  1.2175 -0.7699
    5NME    CH3   39  11.171   9.754  11.106  0.6399 -0.0045 -0.6990
    5NME   HH31   40  11.076   9.712  11.071  0.3861  0.9621 -1.1788
    5NME   HH32   41  11.249   9.694  11.058 -0.8795 -0.0963 -3.2873
    5NME   HH33   42  11.183   9.746  11.214  0.0713  0.0626 -0.6283
  20.91516  20.91516  20.91516
