Protein
   32
    1ACE   HH31    1  14.411   6.387  11.668  1.4444  1.3802  0.4429
    1ACE    CH3    2  14.320   6.411  11.723  0.6200  0.5387 -0.5077
    1ACE   HH32    3  14.266   6.492  11.676 -0.5032  0.5135  0.6938
    1ACE   HH33    4  14.345   6.452  11.821 -2.6651  0.7238  0.3573
    1ACE      C    5  14.228   6.293  11.750 -0.1386 -0.0200  0.0539
    1ACE      O    6  14.165   6.290  11.853  0.2807  0.1081  0.0623
    2ALA      N    7  14.236   6.198  11.654  0.3765 -1.1945 -0.2636
    2ALA      H    8  14.315   6.201  11.593 -0.8947 -0.9044 -1.9533
    2ALA     CA    9  14.131   6.092  11.638 -0.2068  0.1961 -0.9808
    2ALA     HA   10  14.114   6.053  11.738  2.9483  0.4849 -0.2161
    2ALA     CB   11  14.001   6.161  11.596  0.4764  0.4420  0.2189
    2ALA    HB1   12  13.968   6.249  11.651  0.0100  0.8573 -0.7057
    2ALA    HB2   13  14.000   6.196  11.492 -0.6899 -0.1459  0.0062
    2ALA    HB3   14  13.926   6.083  11.600 -1.1681  1.8161 -1.6672
    2ALA      C   15  14.173   5.966  11.554 -0.4927 -0.0019 -0.1312
    2ALA      O   16  14.137   5.953  11.439 -0.9422  0.0616 -0.0680
    3ALA      N   17  14.256   5.885  11.619 -0.1086  0.3703 -0.2202
    3ALA      H   18  14.292   5.909  11.710 -1.5032  1.4010  0.0988
    3ALA     CA   19  14.325   5.771  11.549 -0.2404  0.0701 -0.4097
    3ALA     HA   20  14.250   5.723  11.486 -1.8579  1.4768  0.3651
    3ALA     CB   21  14.435   5.821  11.462 -0.0061  0.1635  0.3789
    3ALA    HB1   22  14.476   5.737  11.405 -0.5799  2.4938 -3.9213
    3ALA    HB2   23  14.410   5.902  11.393  0.6698 -1.2948 -1.6878
    3ALA    HB3   24  14.522   5.864  11.511 -0.6885 -0.1890  1.9245
    3ALA      C   25  14.374   5.666  11.647 -0.5530 -0.6486  0.2533
    3ALA      O   26  14.438   5.697  11.750  0.4566 -0.1094 -0.0420
    4NME      N   27  14.343   5.538  11.619 -0.5502 -0.1373 -0.5897
    4NME      H   28  14.287   5.524  11.536 -2.7767 -0.0024  0.8173
    4NME    CH3   29  14.358   5.420  11.714 -0.0684 -0.2006 -0.0803
    4NME   HH31   30  14.399   5.440  11.813  1.5062 -0.4401 -0.6517
    4NME   HH32   31  14.263   5.368  11.726 -0.2798  0.2479  0.1908
    4NME   HH33   32  14.423   5.343  11.672 -1.2320 -1.1593 -0.2047
  20.99041  20.99041  20.99041
