Protein
   32
    1ACE   HH31    1   6.175   9.335   4.795 -0.3198 -0.6584  1.1961
    1ACE    CH3    2   6.167   9.443   4.780  0.5024 -0.7960 -0.3058
    1ACE   HH32    3   6.170   9.485   4.880  0.5930 -0.0295 -0.6070
    1ACE   HH33    4   6.075   9.465   4.726 -0.0992  0.7211  1.2708
    1ACE      C    5   6.285   9.490   4.694  0.2855  0.3524  0.2518
    1ACE      O    6   6.388   9.428   4.693 -0.2042  0.4305  0.4151
    2ALA      N    7   6.274   9.607   4.636 -0.1841  0.2254  0.0316
    2ALA      H    8   6.182   9.646   4.626  0.0891  0.3331 -3.0382
    2ALA     CA    9   6.383   9.674   4.553  0.1051  0.2233  0.0204
    2ALA     HA   10   6.406   9.611   4.467 -0.5375  0.6594 -0.4775
    2ALA     CB   11   6.320   9.804   4.513 -0.3445 -0.7641  1.1776
    2ALA    HB1   12   6.220   9.788   4.473 -0.3748 -2.7629  1.9850
    2ALA    HB2   13   6.322   9.875   4.596 -1.4059  0.1612  0.4487
    2ALA    HB3   14   6.390   9.848   4.441  1.5439 -1.8842  2.2855
    2ALA      C   15   6.512   9.699   4.627 -0.7174  0.9873  0.2928
    2ALA      O   16   6.616   9.731   4.565 -0.1875 -0.1029  0.3567
    3ALA      N   17   6.522   9.671   4.757 -1.2499  0.2881  0.1500
    3ALA      H   18   6.437   9.643   4.805 -1.3971  0.5950  0.0813
    3ALA     CA   19   6.637   9.690   4.847  0.7875  0.0012  0.0779
    3ALA     HA   20   6.718   9.736   4.789 -1.4039  0.5900 -2.7593
    3ALA     CB   21   6.595   9.789   4.958 -0.3193 -0.1782  0.1364
    3ALA    HB1   22   6.688   9.816   5.008  1.5860 -1.3014 -2.5523
    3ALA    HB2   23   6.564   9.884   4.917 -0.5070 -0.4668 -0.4107
    3ALA    HB3   24   6.524   9.743   5.027 -0.0717 -0.3170  0.3022
    3ALA      C   25   6.687   9.555   4.907 -0.0150 -0.3340 -0.7435
    3ALA      O   26   6.754   9.556   5.013 -0.5547  0.1565 -0.0730
    4NME      N   27   6.644   9.441   4.854  0.2222  0.0554  0.4119
    4NME      H   28   6.578   9.448   4.778  1.3949  1.7700 -0.5595
    4NME    CH3   29   6.700   9.306   4.885  0.2445 -0.1483 -0.0695
    4NME   HH31   30   6.807   9.302   4.861 -0.1018 -1.6101 -1.6206
    4NME   HH32   31   6.681   9.288   4.990  0.3780  0.0763 -0.0053
    4NME   HH33   32   6.658   9.223   4.828  0.7189 -0.4460  0.0075
  20.99041  20.99041  20.99041
