Protein
   42
    1ACE   HH31    1  10.772  10.080   9.525 -3.4859  1.6270  0.1598
    1ACE    CH3    2  10.786  10.062   9.631  0.0705 -0.4775 -0.4683
    1ACE   HH32    3  10.889  10.074   9.665 -0.4661 -1.4805  1.6591
    1ACE   HH33    4  10.766   9.962   9.669  1.3128 -0.2200  1.0343
    1ACE      C    5  10.685  10.142   9.712 -0.4230 -0.4074  0.3828
    1ACE      O    6  10.721  10.184   9.825  0.0405  0.3686 -0.4101
    2ALA      N    7  10.575  10.169   9.649 -0.4545 -0.7413  0.0491
    2ALA      H    8  10.569  10.133   9.555 -1.1409  0.6388 -0.4466
    2ALA     CA    9  10.490  10.286   9.687 -0.1621 -0.3207 -0.1169
    2ALA     HA   10  10.407  10.293   9.616 -1.3030 -0.7314  1.1038
    2ALA     CB   11  10.425  10.260   9.823  0.0057 -0.0497  0.5394
    2ALA    HB1   12  10.324  10.302   9.830 -1.0014 -1.7446 -2.2402
    2ALA    HB2   13  10.427  10.153   9.841  0.1770  0.1910  2.0887
    2ALA    HB3   14  10.486  10.296   9.906 -0.0483  0.6419  0.2932
    2ALA      C   15  10.559  10.420   9.675 -0.3372  0.0314  0.0196
    2ALA      O   16  10.655  10.439   9.604 -0.0129 -0.0425  0.4748
    3ALA      N   17  10.503  10.525   9.735  0.4746 -0.5738  0.2485
    3ALA      H   18  10.414  10.505   9.778 -1.2708  2.0902 -1.8154
    3ALA     CA   19  10.540  10.665   9.729 -0.0224 -0.1051  0.2117
    3ALA     HA   20  10.499  10.711   9.819  0.1882 -0.1113  0.3110
    3ALA     CB   21  10.692  10.698   9.742  0.4698 -0.3135 -1.1210
    3ALA    HB1   22  10.743  10.641   9.819 -0.3550 -2.6035 -2.1852
    3ALA    HB2   23  10.736  10.680   9.644 -1.3276 -0.4918 -1.9485
    3ALA    HB3   24  10.707  10.805   9.756 -0.3217 -0.3479  0.2411
    3ALA      C   25  10.472  10.738   9.615 -0.0914  0.1334 -0.0677
    3ALA      O   26  10.391  10.684   9.543  0.4419 -0.1119  0.3569
    4ALA      N   27  10.506  10.867   9.595  0.2500  0.5103  0.6846
    4ALA      H   28  10.580  10.904   9.653 -0.2804  1.0119  1.0526
    4ALA     CA   29  10.434  10.954   9.497  0.2934 -0.1329 -0.1526
    4ALA     HA   30  10.389  10.892   9.420 -1.9416 -1.3150  1.9447
    4ALA     CB   31  10.317  11.018   9.566  0.0053 -0.3495  0.1768
    4ALA    HB1   32  10.244  11.048   9.491 -1.8172  1.0536  2.3978
    4ALA    HB2   33  10.264  10.943   9.625 -1.6243 -0.5062 -1.3927
    4ALA    HB3   34  10.348  11.102   9.628  2.8007 -1.1961  0.0527
    4ALA      C   35  10.527  11.050   9.429  0.5400 -0.2836 -0.4077
    4ALA      O   36  10.633  11.079   9.475 -0.4897  0.1275  0.4818
    5NME      N   37  10.483  11.107   9.313 -0.2158  0.1758 -0.2133
    5NME      H   38  10.393  11.082   9.273  0.4756  2.8837 -4.0196
    5NME    CH3   39  10.562  11.206   9.238  0.7707 -0.1057 -0.0084
    5NME   HH31   40  10.516  11.219   9.140 -4.3023  0.5014  2.1389
    5NME   HH32   41  10.564  11.304   9.285  4.3063  1.3919 -2.7880
    5NME   HH33   42  10.663  11.166   9.235  0.5021 -0.7529 -0.5005
  20.91516  20.91516  20.91516
