Protein
   32
    1ACE   HH31    1   6.342  10.038  13.378 -1.1633 -1.3358  1.2330
    1ACE    CH3    2   6.374   9.937  13.355 -0.4155 -0.9681  0.6202
    1ACE   HH32    3   6.347   9.870  13.437  0.2198 -0.7584  1.0121
    1ACE   HH33    4   6.483   9.937  13.345 -0.3701 -2.5338  0.7830
    1ACE      C    5   6.317   9.904  13.219 -0.0171 -0.1095  0.2509
    1ACE      O    6   6.249   9.984  13.160  0.4316 -0.2040  0.1171
    2ALA      N    7   6.331   9.780  13.183 -0.0217  0.2690 -0.1966
    2ALA      H    8   6.378   9.713  13.242  0.3409  1.3420  0.7624
    2ALA     CA    9   6.255   9.710  13.081  0.3488 -0.4819  0.3671
    2ALA     HA   10   6.236   9.778  12.999  0.4730 -1.3920 -0.4332
    2ALA     CB   11   6.322   9.588  13.034  0.1034  0.8833  0.4570
    2ALA    HB1   12   6.272   9.524  12.961  1.0165 -0.7454  1.1812
    2ALA    HB2   13   6.415   9.624  12.988  1.3526 -2.7072 -0.1629
    2ALA    HB3   14   6.345   9.524  13.118 -2.2421 -0.2818  0.3020
    2ALA      C   15   6.108   9.678  13.128 -1.3152 -0.0803  0.6947
    2ALA      O   16   6.079   9.686  13.241  0.2658  0.0004 -0.3941
    3ALA      N   17   6.018   9.646  13.031 -0.8216  0.1029 -0.0127
    3ALA      H   18   6.051   9.645  12.936 -0.7969  0.3272 -0.0088
    3ALA     CA   19   5.884   9.590  13.066 -0.7176  1.0617 -0.5687
    3ALA     HA   20   5.835   9.660  13.133 -1.4995 -0.6418  0.7123
    3ALA     CB   21   5.796   9.571  12.934 -0.3469 -0.1425 -0.4961
    3ALA    HB1   22   5.832   9.638  12.856 -0.9696 -1.4671 -1.9848
    3ALA    HB2   23   5.809   9.470  12.894 -0.7988  0.0995 -1.2749
    3ALA    HB3   24   5.693   9.592  12.962 -0.3604  0.8213 -1.2338
    3ALA      C   25   5.909   9.456  13.141  0.1681  0.6894  0.5699
    3ALA      O   26   5.952   9.354  13.087  0.1246 -0.2831  0.4574
    4NME      N   27   5.862   9.441  13.263  0.0387  0.1493  0.5948
    4NME      H   28   5.802   9.518  13.290 -0.6094  0.1577 -0.7756
    4NME    CH3   29   5.905   9.333  13.351 -0.3924 -0.2317  0.1370
    4NME   HH31   30   5.878   9.235  13.311 -1.2891  0.6045 -1.3976
    4NME   HH32   31   6.011   9.353  13.370 -0.7814  1.9337  0.2211
    4NME   HH33   32   5.859   9.346  13.449 -1.5862 -0.3269 -0.4013
  20.99041  20.99041  20.99041
