Title
  129
    1AIB    CAY    1  22.297  20.362  19.616  0.7479  0.2227 -0.0667
    1AIB    HY1    2  22.290  20.433  19.701 -1.3562  1.5442 -1.2603
    1AIB    HY2    3  22.399  20.318  19.625  0.5013 -0.3925 -0.2269
    1AIB    HY3    4  22.216  20.286  19.620  1.1259 -0.2234 -0.7679
    1AIB     CY    5  22.281  20.439  19.492 -0.0752 -1.0368  0.3812
    1AIB     OY    6  22.170  20.463  19.450  0.3385 -0.1919 -0.1373
    1AIB      N    7  22.393  20.502  19.434  0.0989  0.2790  0.0206
    1AIB     HN    8  22.473  20.495  19.493 -0.3002  1.7614  0.7790
    1AIB     CA    9  22.390  20.609  19.341 -0.7075 -0.5390 -0.3006
    1AIB    CB1   10  22.534  20.622  19.294  0.0211 -0.5115 -0.5065
    1AIB   HB11   11  22.542  20.685  19.202 -2.9252 -0.7880 -1.0412
    1AIB   HB12   12  22.579  20.522  19.278  1.4259 -0.1070  0.6610
    1AIB   HB13   13  22.601  20.667  19.371 -1.8797  1.9762 -0.1835
    1AIB    CB2   14  22.323  20.737  19.399 -0.0485 -0.2037 -0.0223
    1AIB   HB21   15  22.381  20.786  19.480  2.2613 -0.0144 -1.6961
    1AIB   HB22   16  22.219  20.715  19.433  0.4126  1.7110  2.9711
    1AIB   HB23   17  22.316  20.820  19.326  2.0777  1.1460  1.2395
    1AIB      C   18  22.313  20.572  19.215  0.5101  0.2881 -0.0386
    1AIB      O   19  22.255  20.659  19.151 -0.0302  0.2527  0.1149
    2AIB      N   20  22.318  20.445  19.167 -0.6888  0.0837  0.4536
    2AIB     HN   21  22.377  20.381  19.215 -1.0393  1.1215  2.3546
    2AIB     CA   22  22.277  20.387  19.038 -0.2860 -1.0387 -0.4096
    2AIB    CB1   23  22.279  20.232  19.061  0.0928 -0.1286  0.7375
    2AIB   HB11   24  22.376  20.178  19.073 -0.9845 -2.2170  0.4684
    2AIB   HB12   25  22.222  20.194  18.974  1.0236  0.8386 -0.3333
    2AIB   HB13   26  22.222  20.213  19.155  0.1030  2.3824  1.3135
    2AIB    CB2   27  22.369  20.423  18.926 -0.3054 -0.1341 -0.5305
    2AIB   HB21   28  22.321  20.401  18.829 -0.5797  0.1858 -0.4682
    2AIB   HB22   29  22.467  20.371  18.936  0.8639  2.0357  0.2149
    2AIB   HB23   30  22.380  20.534  18.927 -0.5095 -0.1060  0.6587
    2AIB      C   31  22.131  20.419  19.003  0.1659  0.7218 -0.4805
    2AIB      O   32  22.100  20.462  18.894 -0.1551 -0.5235  0.3059
    3AIB      N   33  22.038  20.396  19.103  0.0005 -0.0439 -1.0508
    3AIB     HN   34  22.078  20.374  19.192 -0.7076  0.5238 -0.5742
    3AIB     CA   35  21.896  20.431  19.086 -0.5537  0.6022 -0.7101
    3AIB    CB1   36  21.845  20.447  19.233 -0.1722  0.3535 -0.4037
    3AIB   HB11   37  21.750  20.504  19.227 -0.4006 -0.1313 -1.6972
    3AIB   HB12   38  21.909  20.506  19.302 -1.3147 -0.3483  1.3287
    3AIB   HB13   39  21.820  20.350  19.282  1.6708  1.1338  2.3096
    3AIB    CB2   40  21.818  20.315  19.014  0.4131 -0.1616 -0.5311
    3AIB   HB21   41  21.809  20.226  19.080  1.2009 -1.0246 -1.5394
    3AIB   HB22   42  21.861  20.294  18.913  0.5801  2.5335 -1.0851
    3AIB   HB23   43  21.713  20.349  19.002  0.8224  2.2371  1.8913
    3AIB      C   44  21.882  20.570  19.017 -0.3793  0.8597  0.7971
    3AIB      O   45  21.825  20.584  18.906 -0.0900 -0.3018 -0.4157
    4AIB      N   46  21.920  20.679  19.092  0.1403 -0.1844 -0.2471
    4AIB     HN   47  21.957  20.674  19.184  0.3248  1.4506 -0.1915
    4AIB     CA   48  21.934  20.823  19.054  0.3787  0.4220  0.7568
    4AIB    CB1   49  22.015  20.905  19.156  0.3635 -0.2615  0.3597
    4AIB   HB11   50  22.123  20.880  19.156  0.2472 -0.7780  0.3832
    4AIB   HB12   51  21.970  20.908  19.258 -0.0443  1.9888  0.1655
    4AIB   HB13   52  21.995  21.011  19.130 -0.0459 -0.0526  1.4702
    4AIB    CB2   53  21.792  20.897  19.053 -0.3020 -0.4693 -0.3264
    4AIB   HB21   54  21.748  20.877  19.152  2.3438  1.7958  1.4640
    4AIB   HB22   55  21.726  20.873  18.967 -1.0671 -0.3111  0.2164
    4AIB   HB23   56  21.807  21.007  19.046 -1.8084 -0.2332 -0.1847
    4AIB      C   57  21.993  20.833  18.908  0.3959 -0.4269  0.0160
    4AIB      O   58  21.932  20.899  18.820  0.1400  0.2216 -0.1573
    5AIB      N   59  22.106  20.777  18.872 -0.8529 -0.6461 -0.1619
    5AIB     HN   60  22.163  20.724  18.934  0.6292 -0.7896 -1.5786
    5AIB     CA   61  22.173  20.788  18.741  0.0530 -0.5240  0.4093
    5AIB    CB1   62  22.297  20.703  18.745 -0.2613  0.5134  0.3833
    5AIB   HB11   63  22.264  20.598  18.759  2.5028 -1.0868 -3.4319
    5AIB   HB12   64  22.363  20.730  18.830 -0.4473  1.0509  0.3676
    5AIB   HB13   65  22.350  20.700  18.647  1.2709  0.0900  1.2078
    5AIB    CB2   66  22.217  20.935  18.715 -0.3662  0.3384 -0.0681
    5AIB   HB21   67  22.299  20.976  18.777  0.2809 -0.1603 -0.5722
    5AIB   HB22   68  22.130  21.000  18.736  0.3184  0.9643  0.9597
    5AIB   HB23   69  22.232  20.959  18.608 -1.8778  1.5181 -0.0514
    5AIB      C   70  22.080  20.735  18.626  0.6434 -0.0612  0.2140
    5AIB      O   71  22.055  20.792  18.521 -0.0095 -0.3284  0.1072
    6AIB      N   72  22.020  20.617  18.650  0.0962 -0.3368  0.0297
    6AIB     HN   73  22.018  20.576  18.741 -0.5191 -0.1630  0.0960
    6AIB     CA   74  21.940  20.544  18.554  0.0916  0.4015  0.4173
    6AIB    CB1   75  21.884  20.420  18.618  0.2744  1.5807  0.3023
    6AIB   HB11   76  21.968  20.356  18.651 -0.9911 -0.0441  0.5114
    6AIB   HB12   77  21.828  20.359  18.543  4.8517 -1.6833 -0.9498
    6AIB   HB13   78  21.820  20.441  18.706 -1.2328  0.4326 -0.4786
    6AIB    CB2   79  22.023  20.494  18.435 -0.0051  0.1157  0.0773
    6AIB   HB21   80  21.981  20.400  18.394  0.0678  1.3668 -3.1273
    6AIB   HB22   81  22.121  20.465  18.479  0.1117  2.5656  1.5652
    6AIB   HB23   82  22.041  20.561  18.348 -0.6116 -2.1346 -1.8652
    6AIB      C   83  21.818  20.620  18.505 -0.1612  0.2888 -0.5053
    6AIB      O   84  21.789  20.618  18.383 -0.0651  0.0266 -0.5937
    7AIB      N   85  21.754  20.696  18.599 -0.1749 -0.1063 -0.0700
    7AIB     HN   86  21.791  20.706  18.690 -1.3157  1.4984  0.2568
    7AIB     CA   87  21.623  20.763  18.577 -0.7512  0.1303 -0.2217
    7AIB    CB1   88  21.566  20.805  18.714 -0.2777 -0.1101 -0.3172
    7AIB   HB11   89  21.644  20.857  18.774  0.7203 -0.9559 -0.8597
    7AIB   HB12   90  21.520  20.718  18.766  1.1195 -0.3701  0.5198
    7AIB   HB13   91  21.487  20.883  18.708 -2.0824 -1.7666  0.6126
    7AIB    CB2   92  21.531  20.668  18.500  0.0335 -0.4544  0.1946
    7AIB   HB21   93  21.543  20.571  18.552  1.0227 -0.2446  0.4031
    7AIB   HB22   94  21.548  20.657  18.390  0.4772 -1.4782  0.3602
    7AIB   HB23   95  21.425  20.697  18.512  0.1659  1.2784 -2.0720
    7AIB      C   96  21.651  20.894  18.506 -0.1830 -0.6665  0.5702
    7AIB      O   97  21.576  20.941  18.419 -0.5072  0.0120  0.1633
    8AIB      N   98  21.761  20.964  18.547 -0.1708  0.1215 -0.1748
    8AIB     HN   99  21.819  20.929  18.621  0.8939  2.2691  0.0769
    8AIB     CA  100  21.799  21.097  18.512 -0.8663  0.1059 -0.2820
    8AIB    CB1  101  21.936  21.129  18.576 -0.2452 -0.7147  0.1119
    8AIB   HB11  102  21.957  21.235  18.551 -0.4780 -1.1542 -2.1767
    8AIB   HB12  103  22.004  21.053  18.532 -0.6646 -1.0399  0.0078
    8AIB   HB13  104  21.921  21.122  18.686 -0.1852  0.7906  0.2345
    8AIB    CB2  105  21.699  21.203  18.560 -0.1109  0.8316 -0.5044
    8AIB   HB21  106  21.612  21.202  18.490 -1.2279 -0.9511  0.8097
    8AIB   HB22  107  21.748  21.302  18.561  1.1396  0.2637 -1.7038
    8AIB   HB23  108  21.662  21.184  18.664  0.2651  1.8075 -0.1824
    8AIB      C  109  21.827  21.108  18.360 -0.7117 -0.3918  0.0497
    8AIB      O  110  21.790  21.204  18.294  0.4732  0.7421 -0.2340
    9AIB      N  111  21.890  21.007  18.294 -0.2704  0.1956  0.2488
    9AIB     HN  112  21.910  20.923  18.342 -2.2651 -1.8829 -2.2812
    9AIB     CA  113  21.930  21.000  18.150 -0.4756  0.0800  0.2975
    9AIB    CB1  114  22.014  20.881  18.133 -0.4440 -0.0503  0.0634
    9AIB   HB11  115  21.953  20.799  18.178  0.1144  0.4661  1.8208
    9AIB   HB12  116  22.107  20.889  18.193 -1.2047 -0.5265  1.3564
    9AIB   HB13  117  22.034  20.862  18.025 -0.3277  1.3141 -0.1645
    9AIB    CB2  118  22.012  21.120  18.101  0.0329 -0.1381  0.1179
    9AIB   HB21  119  22.100  21.143  18.165  0.2941  2.7622 -1.0962
    9AIB   HB22  120  21.943  21.207  18.094  1.6067  1.2196  0.9320
    9AIB   HB23  121  22.043  21.116  17.994 -0.4975  3.2568 -0.2770
    9AIB      C  122  21.809  20.975  18.054 -0.1086  0.3661  0.1007
    9AIB      O  123  21.813  20.994  17.931 -0.2756  0.1010  0.2985
    9AIB     NT  124  21.695  20.940  18.116  0.3911 -0.0149  0.3275
    9AIB    HNT  125  21.681  20.947  18.215  0.2094 -0.5793  0.3434
    9AIB    CAT  126  21.580  20.928  18.034  0.2390 -0.5195  0.9326
    9AIB    HT1  127  21.498  20.875  18.088 -0.7917 -0.7438 -0.7716
    9AIB    HT2  128  21.605  20.870  17.943 -1.9540 -0.6395  0.3338
    9AIB    HT3  129  21.543  21.030  18.011 -1.9515 -1.9678 -2.9918
  42.09246  42.09246  42.09246
