Protein
   42
    1ACE   HH31    1  18.191  16.110   8.818  0.2380  1.0227 -0.0029
    1ACE    CH3    2  18.186  16.004   8.795  0.2212  0.9735  0.2283
    1ACE   HH32    3  18.282  15.969   8.756 -0.7109 -1.1549 -0.2859
    1ACE   HH33    4  18.121  15.983   8.710  1.8366  0.8252 -1.0393
    1ACE      C    5  18.138  15.914   8.902  0.0443 -0.1058  0.0539
    1ACE      O    6  18.143  15.794   8.895  0.3009  0.0185  0.2386
    2ALA      N    7  18.087  15.978   9.004 -0.3798 -0.0767  0.0585
    2ALA      H    8  18.069  16.077   8.991  0.4631  0.0800 -0.0077
    2ALA     CA    9  18.045  15.929   9.136 -0.4820 -0.1002  0.1352
    2ALA     HA   10  18.124  15.861   9.168 -1.2448 -0.3798  1.5091
    2ALA     CB   11  18.051  16.047   9.236  0.5412 -0.2588 -0.3604
    2ALA    HB1   12  18.147  16.097   9.234  0.7087 -0.2661  2.5534
    2ALA    HB2   13  17.965  16.110   9.213  0.5686 -0.6457 -1.5850
    2ALA    HB3   14  18.039  16.022   9.342  0.7475 -0.4425 -0.3772
    2ALA      C   15  17.906  15.867   9.124 -0.2226 -0.0715 -1.0964
    2ALA      O   16  17.824  15.911   9.044 -0.0047 -0.5734  0.2648
    3ALA      N   17  17.854  15.780   9.212 -0.3698 -0.3634 -0.0714
    3ALA      H   18  17.754  15.769   9.219 -0.2915 -1.3079 -0.4823
    3ALA     CA   19  17.931  15.692   9.310  0.2617  0.1092  0.7856
    3ALA     HA   20  17.948  15.742   9.406  0.1882 -1.2236  1.5181
    3ALA     CB   21  17.849  15.574   9.337 -0.2592  0.1546  0.0847
    3ALA    HB1   22  17.759  15.602   9.392  0.9754  2.5789  0.9774
    3ALA    HB2   23  17.829  15.513   9.249  0.9518  1.2833 -1.0073
    3ALA    HB3   24  17.903  15.502   9.398 -0.1179  0.7449  0.6592
    3ALA      C   25  18.069  15.655   9.260  0.3838  0.9567  0.3887
    3ALA      O   26  18.169  15.680   9.327  0.1836 -0.4483 -0.2007
    4ALA      N   27  18.082  15.602   9.138 -0.4002 -0.1352 -0.5170
    4ALA      H   28  18.002  15.610   9.077 -1.1780 -1.0296  0.3537
    4ALA     CA   29  18.193  15.534   9.082  0.4744 -0.1048 -0.1605
    4ALA     HA   30  18.267  15.605   9.046  0.2598  0.4202  0.4203
    4ALA     CB   31  18.250  15.421   9.173  0.9520  0.1451  0.0324
    4ALA    HB1   32  18.281  15.450   9.274  0.1546  0.4470  0.1993
    4ALA    HB2   33  18.168  15.354   9.197 -0.7133  2.6088  1.7037
    4ALA    HB3   34  18.335  15.379   9.119 -0.1483 -0.9850 -0.8748
    4ALA      C   35  18.137  15.466   8.948  0.0819 -0.1374  0.0790
    4ALA      O   36  18.015  15.455   8.926  0.0112 -0.0102  0.3238
    5NME      N   37  18.231  15.437   8.858 -0.2765 -0.3361 -0.9127
    5NME      H   38  18.326  15.457   8.886 -1.1769  0.8621  1.4928
    5NME    CH3   39  18.211  15.393   8.723 -0.3670  0.6349  0.3927
    5NME   HH31   40  18.286  15.317   8.702  0.8178  1.3457  1.7715
    5NME   HH32   41  18.110  15.352   8.717 -0.4779  0.7133  1.3806
    5NME   HH33   42  18.233  15.470   8.649 -1.8302  0.3942 -0.3090
  20.91516  20.91516  20.91516
