Protein
   42
    1ACE   HH31    1  11.650   8.546   9.754  2.2054  3.6183 -1.1003
    1ACE    CH3    2  11.561   8.605   9.774 -1.1606 -1.1745 -0.0739
    1ACE   HH32    3  11.464   8.558   9.761 -0.6835 -1.5193 -2.7979
    1ACE   HH33    4  11.566   8.687   9.702  0.6222 -0.3086  0.9538
    1ACE      C    5  11.576   8.674   9.911 -0.2624  0.3185 -1.0601
    1ACE      O    6  11.653   8.770   9.929 -0.2987  0.0838  0.4784
    2ALA      N    7  11.497   8.627  10.008  0.0241 -0.6267 -0.3225
    2ALA      H    8  11.429   8.556   9.984 -0.7075 -1.1707  2.8350
    2ALA     CA    9  11.496   8.675  10.149 -0.0287 -0.4679  0.5589
    2ALA     HA   10  11.591   8.725  10.166 -0.9366  1.5348  0.0223
    2ALA     CB   11  11.382   8.784  10.151  0.3568 -0.5529 -0.5801
    2ALA    HB1   12  11.280   8.747  10.159 -0.9376  2.7550 -0.3034
    2ALA    HB2   13  11.405   8.840  10.241 -0.6635 -2.8384  1.2128
    2ALA    HB3   14  11.380   8.838  10.056  0.6189 -2.0779 -1.5065
    2ALA      C   15  11.480   8.558  10.247 -0.5029  0.0035 -0.8527
    2ALA      O   16  11.387   8.563  10.326 -0.1272 -0.1486 -0.0502
    3ALA      N   17  11.560   8.452  10.240  0.0466  0.2018 -0.6684
    3ALA      H   18  11.539   8.380  10.308 -2.0634  0.5640 -0.8752
    3ALA     CA   19  11.680   8.442  10.148  0.1234  0.3977  0.2829
    3ALA     HA   20  11.706   8.544  10.120 -1.6887  0.1628 -2.8057
    3ALA     CB   21  11.797   8.385  10.234 -0.5013 -0.5104 -0.6956
    3ALA    HB1   22  11.773   8.295  10.291  1.4387 -1.6702 -1.6098
    3ALA    HB2   23  11.884   8.369  10.171 -0.2729  0.4786 -0.6337
    3ALA    HB3   24  11.819   8.467  10.302  0.3816  0.2217 -1.8503
    3ALA      C   25  11.660   8.367  10.010  0.1262 -0.7200  0.0547
    3ALA      O   26  11.750   8.357   9.931 -0.3500  0.2894  0.3826
    4ALA      N   27  11.542   8.315   9.976 -0.0215 -0.7178 -0.3914
    4ALA      H   28  11.465   8.314  10.041  0.9292 -2.9880  0.8260
    4ALA     CA   29  11.507   8.268   9.845 -0.8541  0.7361 -0.0606
    4ALA     HA   30  11.584   8.302   9.776 -0.7792  1.0666  0.1858
    4ALA     CB   31  11.507   8.116   9.842 -0.2297  0.7482 -0.1729
    4ALA    HB1   32  11.602   8.071   9.871 -0.3615  0.2337 -0.5234
    4ALA    HB2   33  11.442   8.086   9.924  0.9861  1.5219  1.1106
    4ALA    HB3   34  11.478   8.079   9.744  0.7674 -2.1597  0.5357
    4ALA      C   35  11.366   8.328   9.808 -0.2272  0.0670  0.1587
    4ALA      O   36  11.311   8.408   9.883 -0.3786  0.3114 -0.3891
    5NME      N   37  11.305   8.296   9.691 -0.2447  0.7482  0.6386
    5NME      H   38  11.359   8.237   9.628 -0.2876  1.0879  0.2800
    5NME    CH3   39  11.169   8.327   9.649 -0.3806  0.3943  0.3084
    5NME   HH31   40  11.164   8.431   9.618 -1.3770  0.3351  0.2565
    5NME   HH32   41  11.139   8.249   9.579 -0.1337  0.0858  0.5427
    5NME   HH33   42  11.105   8.311   9.736  0.6580 -1.5587  0.7814
  20.91516  20.91516  20.91516
