Protein
   42
    1ACE   HH31    1  11.503   9.362  11.437  0.7558  1.5326  1.7566
    1ACE    CH3    2  11.400   9.393  11.422  0.3059 -0.3367  0.5570
    1ACE   HH32    3  11.379   9.378  11.316  0.3340 -1.8112  0.7409
    1ACE   HH33    4  11.381   9.497  11.448 -0.4223 -0.4420  0.4877
    1ACE      C    5  11.306   9.309  11.511  0.2703 -0.3177  0.1847
    1ACE      O    6  11.348   9.209  11.571  0.5821 -0.3089  0.6154
    2ALA      N    7  11.179   9.346  11.514  0.5938 -0.1677 -0.0026
    2ALA      H    8  11.150   9.413  11.444 -3.3674 -3.0487 -1.4962
    2ALA     CA    9  11.078   9.292  11.603  0.6060  0.2595  0.2501
    2ALA     HA   10  11.127   9.244  11.688 -0.8041  0.6216  1.3003
    2ALA     CB   11  10.998   9.419  11.655 -0.2903  0.4617  0.3047
    2ALA    HB1   12  11.080   9.485  11.685  1.7530 -1.6122 -0.3701
    2ALA    HB2   13  10.933   9.464  11.580  1.8744  4.0856  0.3406
    2ALA    HB3   14  10.940   9.389  11.742 -2.5393 -0.4739 -1.4502
    2ALA      C   15  10.975   9.195  11.527  0.1475  0.8944 -0.8029
    2ALA      O   16  10.864   9.173  11.585 -0.0170 -0.4470 -0.0202
    3ALA      N   17  10.986   9.125  11.416  0.6599  0.2442 -0.2696
    3ALA      H   18  10.905   9.066  11.401 -0.2434  1.0925  1.0632
    3ALA     CA   19  11.097   9.121  11.317  0.6272  0.5029 -0.1673
    3ALA     HA   20  11.189   9.118  11.376  1.8392  2.5206 -1.8638
    3ALA     CB   21  11.090   8.998  11.229  0.2892 -0.0194  0.9143
    3ALA    HB1   22  11.001   9.006  11.167  1.8288  0.5889 -1.3316
    3ALA    HB2   23  11.178   8.995  11.165 -0.3881  0.4573 -0.0441
    3ALA    HB3   24  11.090   8.913  11.298 -0.5715 -1.7923 -1.1906
    3ALA      C   25  11.093   9.244  11.229 -0.5231  0.5425 -0.7069
    3ALA      O   26  11.184   9.261  11.146  0.0866  0.5072 -0.5492
    4ALA      N   27  10.987   9.324  11.235 -0.3553 -0.0185 -0.4403
    4ALA      H   28  10.923   9.293  11.306  1.1459  0.9488  1.4621
    4ALA     CA   29  10.973   9.455  11.173 -0.2510 -0.7037 -0.2287
    4ALA     HA   30  10.939   9.434  11.071 -2.3837 -0.3671  0.3364
    4ALA     CB   31  10.858   9.536  11.240  1.0066  0.4951  0.1639
    4ALA    HB1   32  10.829   9.627  11.188  1.0400 -0.8441 -2.2908
    4ALA    HB2   33  10.777   9.463  11.245  0.3338  1.1555 -0.7490
    4ALA    HB3   34  10.904   9.562  11.336  0.7728  0.9078  0.1685
    4ALA      C   35  11.104   9.531  11.161 -0.5982 -0.3072 -0.8723
    4ALA      O   36  11.174   9.539  11.255  0.0993 -0.4745 -0.4054
    5NME      N   37  11.133   9.578  11.040 -0.2107 -0.0932  0.3032
    5NME      H   38  11.076   9.560  10.959  1.8275 -0.2953 -1.1702
    5NME    CH3   39  11.265   9.627  11.008 -0.3386 -0.1755  0.5339
    5NME   HH31   40  11.248   9.703  10.930 -1.1343 -1.6936 -0.8466
    5NME   HH32   41  11.299   9.678  11.098 -1.4538  1.1333  0.2594
    5NME   HH33   42  11.327   9.544  10.976  1.2335  1.7091 -1.7590
  20.91516  20.91516  20.91516
