<<<<<<< HEAD
Protein
   42
    1ACE   HH31    1   9.626  13.335  11.078  1.3644  1.2008  2.6587
    1ACE    CH3    2   9.706  13.264  11.056  0.0114  0.4433 -0.4030
    1ACE   HH32    3   9.732  13.213  11.148 -0.8540  0.9221  0.1209
    1ACE   HH33    4   9.786  13.318  11.006  3.0568 -1.9030  1.5737
    1ACE      C    5   9.655  13.159  10.960  0.3322 -0.1920  0.0564
    1ACE      O    6   9.699  13.046  10.964 -0.3019  0.0641  0.0139
    2ALA      N    7   9.543  13.196  10.893 -0.4578 -0.5851  0.2306
    2ALA      H    8   9.521  13.293  10.914  0.9574 -0.4456  1.2695
    2ALA     CA    9   9.440  13.116  10.825  0.7567 -0.3627 -0.5117
    2ALA     HA   10   9.360  13.178  10.786  0.1837 -0.1413  0.9945
    2ALA     CB   11   9.490  13.059  10.690  0.0017 -0.0373  0.4801
    2ALA    HB1   12   9.525  13.145  10.632 -1.9596  0.1356 -0.5526
    2ALA    HB2   13   9.569  12.987  10.706  0.7499  0.7550  0.5077
    2ALA    HB3   14   9.405  13.009  10.644 -0.5636  2.1960 -1.1176
    2ALA      C   15   9.378  13.021  10.928  0.2275  0.8131 -0.1369
    2ALA      O   16   9.282  13.059  10.999  0.1510 -0.2168 -0.2286
    3ALA      N   17   9.431  12.898  10.932  0.4472 -0.2182 -0.1745
    3ALA      H   18   9.512  12.880  10.875 -0.2629  0.8303 -1.5874
    3ALA     CA   19   9.400  12.802  11.041  0.0234 -0.8173 -0.3548
    3ALA     HA   20   9.483  12.731  11.037  1.6042  0.8670  0.9180
    3ALA     CB   21   9.424  12.862  11.187 -0.4392  0.0334  0.0134
    3ALA    HB1   22   9.443  12.782  11.257  0.7791  2.1239  2.2128
    3ALA    HB2   23   9.502  12.937  11.187 -0.3994  0.0068 -1.3732
    3ALA    HB3   24   9.332  12.913  11.217  0.4099  1.9893 -0.4969
    3ALA      C   25   9.269  12.722  11.009  0.7503 -0.3449 -0.3717
    3ALA      O   26   9.215  12.732  10.897  0.0415  0.4252 -0.5107
    4ALA      N   27   9.203  12.666  11.112 -0.8326  0.2233 -0.2952
    4ALA      H   28   9.251  12.648  11.199  2.4722  1.1789 -1.7646
    4ALA     CA   29   9.064  12.604  11.096 -0.3506  0.1668  0.2810
    4ALA     HA   30   9.050  12.580  10.991 -2.8464  0.3293  0.5236
    4ALA     CB   31   9.052  12.473  11.178 -0.1896  0.2240  0.0238
    4ALA    HB1   32   9.066  12.489  11.285 -0.7043 -2.6123  0.5913
    4ALA    HB2   33   8.963  12.418  11.147 -1.7351  3.3197 -1.3903
    4ALA    HB3   34   9.137  12.408  11.157  1.2756  2.1023 -0.1013
    4ALA      C   35   8.954  12.705  11.133 -0.5197 -0.3691 -0.3935
    4ALA      O   36   8.839  12.664  11.161  0.0814  0.1010  0.2651
    5NME      N   37   8.991  12.836  11.141 -0.1021 -0.0150 -0.0612
    5NME      H   38   9.086  12.862  11.118 -0.1603  0.9511  0.7182
    5NME    CH3   39   8.901  12.945  11.165  0.5682 -0.2105 -0.0132
    5NME   HH31   40   8.873  12.948  11.270  0.9048  1.8796  0.0606
    5NME   HH32   41   8.941  13.042  11.134  0.2217  0.6548  2.1211
    5NME   HH33   42   8.802  12.931  11.123  0.8390  1.1852 -1.1833
  20.91516  20.91516  20.91516
=======
Protein
   42
    1ACE   HH31    1   5.908  11.343   8.303 -3.4286 -2.5082 -0.7078
    1ACE    CH3    2   5.873  11.347   8.406  0.0165 -1.1970  0.5495
    1ACE   HH32    3   5.765  11.348   8.391  0.1719 -0.1488 -0.6543
    1ACE   HH33    4   5.914  11.435   8.457  0.0500 -1.8384  1.6696
    1ACE      C    5   5.906  11.219   8.484  0.7599 -0.1361  0.5979
    1ACE      O    6   5.959  11.128   8.420 -0.7635  0.1538 -0.6360
    2ALA      N    7   5.868  11.218   8.611 -0.0929 -0.2227  0.8452
    2ALA      H    8   5.818  11.297   8.649 -1.2830 -1.0187  0.9800
    2ALA     CA    9   5.884  11.106   8.696 -0.3449  0.6694 -0.2939
    2ALA     HA   10   5.867  11.016   8.638 -3.1072  0.5719  0.5232
    2ALA     CB   11   6.020  11.107   8.761  0.0673 -0.7023 -0.5021
    2ALA    HB1   12   6.096  11.107   8.683  1.6875 -2.7390  0.9966
    2ALA    HB2   13   6.023  11.198   8.820 -1.6907 -0.6779 -0.3896
    2ALA    HB3   14   6.034  11.023   8.829  3.9213  0.7476  0.7172
    2ALA      C   15   5.765  11.115   8.798 -0.2648 -0.0155  0.0564
    2ALA      O   16   5.733  11.224   8.845 -0.1979  0.3839 -0.1988
    3ALA      N   17   5.703  11.008   8.841  0.1309  0.1360 -0.3100
    3ALA      H   18   5.620  11.044   8.886  0.2818  1.4296 -1.0420
    3ALA     CA   19   5.709  10.866   8.812 -0.0635 -0.2078 -0.0734
    3ALA     HA   20   5.758  10.840   8.718  0.0878  0.0910 -0.0864
    3ALA     CB   21   5.798  10.810   8.925 -0.8232  0.5979 -0.2915
    3ALA    HB1   22   5.803  10.701   8.917 -2.5267  0.4846 -0.2681
    3ALA    HB2   23   5.899  10.848   8.914 -0.5966  0.6732  1.7706
    3ALA    HB3   24   5.759  10.844   9.021 -0.3043  0.7128 -0.1233
    3ALA      C   25   5.562  10.805   8.814  0.6883 -0.0818  1.1073
    3ALA      O   26   5.488  10.823   8.912 -0.1840 -0.0822 -0.1343
    4ALA      N   27   5.522  10.732   8.704 -0.0690  0.1552  0.2584
    4ALA      H   28   5.586  10.707   8.630  1.1948  0.0936  1.3205
    4ALA     CA   29   5.385  10.672   8.692 -0.6905  0.2327 -0.1545
    4ALA     HA   30   5.355  10.629   8.787 -3.0062 -0.7410 -1.2572
    4ALA     CB   31   5.291  10.787   8.660  0.2947 -0.8853 -0.0810
    4ALA    HB1   32   5.187  10.753   8.655 -0.6875  1.7192  0.7216
    4ALA    HB2   33   5.296  10.864   8.737  0.8076 -0.7777 -0.2144
    4ALA    HB3   34   5.309  10.833   8.563 -1.7280  1.2795  0.4797
    4ALA      C   35   5.381  10.552   8.600 -0.6735  0.5073  0.0277
    4ALA      O   36   5.474  10.530   8.521 -0.3274  0.1449  0.0479
    5NME      N   37   5.279  10.463   8.617  0.1372  0.1872 -0.1819
    5NME      H   38   5.195  10.494   8.664 -0.0911 -0.7804  0.0740
    5NME    CH3   39   5.267  10.331   8.544  0.4133  0.3759 -0.1719
    5NME   HH31   40   5.365  10.294   8.514  0.9425  1.6030  0.0063
    5NME   HH32   41   5.224  10.253   8.607 -1.4383 -0.5277 -2.3744
    5NME   HH33   42   5.197  10.348   8.462  0.9781 -1.8802 -1.2201
  20.91516  20.91516  20.91516
>>>>>>> e505351e8895c44bcd67ad8436d05c0eaca14691
