Protein
   42
    1ACE   HH31    1   4.624   6.167  10.223  1.4950 -1.4746 -0.4364
    1ACE    CH3    2   4.598   6.159  10.118 -0.1275  0.0306 -0.2155
    1ACE   HH32    3   4.664   6.086  10.071  0.1515  0.3916 -0.3792
    1ACE   HH33    4   4.599   6.260  10.077 -0.1165 -0.0688 -0.4594
    1ACE      C    5   4.461   6.105  10.097 -0.2802  0.4974 -0.2296
    1ACE      O    6   4.381   6.106  10.187  0.9343  0.0862 -0.4682
    2ALA      N    7   4.436   6.053   9.978  0.2130  0.2951 -0.2756
    2ALA      H    8   4.512   6.055   9.913  1.1271 -0.0883  0.7519
    2ALA     CA    9   4.311   6.012   9.924 -0.2437  0.4768 -0.0897
    2ALA     HA   10   4.230   6.078   9.956 -2.4743 -0.9903 -2.2752
    2ALA     CB   11   4.326   6.023   9.768 -0.3108 -0.1178  0.1538
    2ALA    HB1   12   4.249   5.970   9.712  1.0448 -1.6652 -0.3527
    2ALA    HB2   13   4.335   6.128   9.741 -0.2607 -0.2935 -0.5140
    2ALA    HB3   14   4.420   5.980   9.733 -1.0955 -1.9809  0.2469
    2ALA      C   15   4.264   5.869   9.969 -0.0235  0.4397  0.1718
    2ALA      O   16   4.162   5.823   9.917 -0.2062  0.5327 -0.0621
    3ALA      N   17   4.350   5.806  10.053  0.0363 -0.1590 -0.5004
    3ALA      H   18   4.437   5.851  10.076  1.5177 -4.1251  2.7418
    3ALA     CA   19   4.337   5.672  10.114  0.0943 -0.8851 -0.1049
    3ALA     HA   20   4.240   5.651  10.159 -0.9062 -0.9367 -2.1687
    3ALA     CB   21   4.358   5.561  10.008 -0.5019 -0.8786 -0.1545
    3ALA    HB1   22   4.304   5.588   9.918 -0.6450  0.5513  0.3414
    3ALA    HB2   23   4.463   5.548   9.982 -0.2097 -0.3211  0.7116
    3ALA    HB3   24   4.318   5.468  10.049 -0.8045 -0.6057  0.1915
    3ALA      C   25   4.452   5.659  10.222  0.2192 -0.5509 -0.4247
    3ALA      O   26   4.552   5.729  10.208 -0.6419  0.3914 -0.0501
    4ALA      N   27   4.427   5.589  10.330 -0.0564 -0.4639 -0.2469
    4ALA      H   28   4.341   5.536  10.337 -0.7560  0.8393  1.9891
    4ALA     CA   29   4.511   5.574  10.453  0.6411  0.5299  0.7906
    4ALA     HA   30   4.463   5.505  10.522  1.6569  0.3624  1.3541
    4ALA     CB   31   4.648   5.508  10.424 -0.4741 -0.4210 -0.2845
    4ALA    HB1   32   4.719   5.511  10.506 -0.5281  1.0402 -0.2664
    4ALA    HB2   33   4.650   5.404  10.392 -1.1218 -1.2317  2.0826
    4ALA    HB3   34   4.698   5.569  10.349 -0.2938 -0.1618  0.0428
    4ALA      C   35   4.525   5.707  10.537 -0.3110 -0.1198  0.3103
    4ALA      O   36   4.523   5.699  10.661  0.0706 -0.5241  0.5117
    5NME      N   37   4.547   5.819  10.472 -0.4996 -0.7032  0.1062
    5NME      H   38   4.540   5.815  10.371 -1.0827 -0.2507  0.1231
    5NME    CH3   39   4.558   5.957  10.531  0.4881  0.2011  0.3433
    5NME   HH31   40   4.661   5.987  10.551  0.3720  0.0330  1.2327
    5NME   HH32   41   4.516   6.033  10.465  0.9712  0.6478  0.5414
    5NME   HH33   42   4.510   5.964  10.628  1.9517  0.9444  1.0459
  20.91516  20.91516  20.91516
