Protein
   32
    1ACE   HH31    1   3.199   4.352   8.556  1.0734  4.0689 -3.3623
    1ACE    CH3    2   3.227   4.279   8.480 -0.3770 -0.5385  0.0420
    1ACE   HH32    3   3.277   4.346   8.409  0.2329 -0.9947  0.0324
    1ACE   HH33    4   3.151   4.217   8.435 -0.0501 -0.1940 -1.0051
    1ACE      C    5   3.343   4.183   8.526 -0.0962 -0.0544  1.2003
    1ACE      O    6   3.383   4.108   8.443 -0.3751  0.8216 -0.4131
    2ALA      N    7   3.393   4.196   8.645  0.4310  0.8094 -0.6428
    2ALA      H    8   3.351   4.254   8.717 -2.0775 -4.6653  2.9975
    2ALA     CA    9   3.525   4.142   8.691  0.6938 -0.3268  0.4655
    2ALA     HA   10   3.542   4.041   8.653  1.1066  0.3592 -1.3156
    2ALA     CB   11   3.634   4.236   8.637  0.5651  1.0165  1.2628
    2ALA    HB1   12   3.714   4.226   8.710  2.8174  1.2431 -1.0560
    2ALA    HB2   13   3.669   4.218   8.535  3.1821  2.8100  1.7639
    2ALA    HB3   14   3.578   4.327   8.618 -0.2764 -0.3248 -5.9364
    2ALA      C   15   3.534   4.128   8.839  0.1325  0.5742  0.0326
    2ALA      O   16   3.472   4.198   8.920 -0.2164  0.4293  0.1441
    3ALA      N   17   3.610   4.023   8.878  0.6683 -0.5434  0.6530
    3ALA      H   18   3.697   4.003   8.830  1.2542  1.9530  0.5610
    3ALA     CA   19   3.604   3.960   9.006 -0.4112 -0.6065 -1.2046
    3ALA     HA   20   3.513   3.992   9.056  1.6603 -1.7387  4.0033
    3ALA     CB   21   3.565   3.809   8.989 -0.2344 -0.1190  0.6609
    3ALA    HB1   22   3.631   3.733   9.029 -2.7756 -3.9737 -1.8011
    3ALA    HB2   23   3.462   3.795   9.022 -1.2759  7.1954  2.4513
    3ALA    HB3   24   3.578   3.790   8.883 -0.1982 -2.0117  0.9862
    3ALA      C   25   3.733   4.002   9.100  0.5718 -0.9688  0.3292
    3ALA      O   26   3.837   3.946   9.078 -0.9474 -0.0858 -0.1761
    4NME      N   27   3.715   4.117   9.174  0.3967 -0.1212  0.4421
    4NME      H   28   3.620   4.149   9.164  0.2410 -1.1736 -5.2051
    4NME    CH3   29   3.829   4.167   9.250  0.5319  0.1512  0.8266
    4NME   HH31   30   3.898   4.199   9.172 -0.5808  2.7464  0.7842
    4NME   HH32   31   3.785   4.248   9.308  1.5654  0.6719  0.9163
    4NME   HH33   32   3.873   4.086   9.308  1.7324  2.4109  3.2941
  20.99041  20.99041  20.99041
