Protein
   42
    1ACE   HH31    1   7.450  12.571   7.605 -0.0990  2.5110  0.7126
    1ACE    CH3    2   7.346  12.571   7.572  0.0866  0.5250  0.0112
    1ACE   HH32    3   7.349  12.541   7.467 -2.0738 -0.1559  0.1046
    1ACE   HH33    4   7.301  12.670   7.577 -0.1485  0.5602 -1.9708
    1ACE      C    5   7.261  12.465   7.644  0.3194 -0.6855  0.0201
    1ACE      O    6   7.296  12.349   7.656 -0.4446  0.2719 -0.1300
    2ALA      N    7   7.135  12.505   7.669  0.1591  0.1472 -0.4955
    2ALA      H    8   7.110  12.596   7.631 -0.3078 -0.0313 -0.6202
    2ALA     CA    9   7.036  12.428   7.743  0.1632 -0.1979  0.6667
    2ALA     HA   10   7.093  12.349   7.792 -0.1388 -0.6925  0.2247
    2ALA     CB   11   6.967  12.515   7.852 -0.1369 -0.4143  0.1278
    2ALA    HB1   12   6.879  12.467   7.896 -1.4369  2.0979  0.4875
    2ALA    HB2   13   7.045  12.536   7.925  1.0442  0.1664 -1.2496
    2ALA    HB3   14   6.939  12.615   7.819 -2.8871 -0.9190  0.5753
    2ALA      C   15   6.925  12.367   7.646  0.0741  0.4250 -0.1497
    2ALA      O   16   6.806  12.392   7.658 -0.0077  0.2956  0.3918
    3ALA      N   17   6.972  12.289   7.551 -0.0989 -0.1714  0.2027
    3ALA      H   18   7.067  12.259   7.565  0.2079  0.0966 -1.1206
    3ALA     CA   19   6.891  12.209   7.461 -0.4767  0.3129 -1.1069
    3ALA     HA   20   6.875  12.264   7.368  1.3306  0.3443 -1.4310
    3ALA     CB   21   6.978  12.099   7.402 -0.6193  0.6198  0.0362
    3ALA    HB1   22   7.076  12.144   7.382 -1.5218  1.6478 -2.3960
    3ALA    HB2   23   6.997  12.019   7.473  0.5050  0.3516 -0.5251
    3ALA    HB3   24   6.938  12.041   7.319  0.4653  0.6864 -0.5712
    3ALA      C   25   6.757  12.160   7.521  0.2195  0.3875  0.5932
    3ALA      O   26   6.759  12.093   7.621 -0.2275  0.2817 -1.0728
    4ALA      N   27   6.646  12.195   7.454  0.4341 -0.5503  1.0678
    4ALA      H   28   6.653  12.275   7.393 -1.1631 -0.6589  0.7088
    4ALA     CA   29   6.502  12.164   7.465  0.0736 -0.2760  0.0277
    4ALA     HA   30   6.446  12.210   7.384  1.7284  0.8669 -0.5284
    4ALA     CB   31   6.488  12.007   7.435 -0.0421  0.4365 -0.3811
    4ALA    HB1   32   6.555  11.954   7.503  1.6771  1.4893 -1.1805
    4ALA    HB2   33   6.389  11.974   7.467  0.3591  1.9011  2.7878
    4ALA    HB3   34   6.517  11.987   7.332  1.0535 -0.2058  0.0354
    4ALA      C   35   6.433  12.202   7.600 -0.0757 -0.4921  1.4033
    4ALA      O   36   6.310  12.213   7.600  0.5188  0.3082 -0.5603
    5NME      N   37   6.514  12.240   7.703  0.3273  0.1479 -0.8530
    5NME      H   38   6.613  12.255   7.688  1.0578 -1.4811  1.5820
    5NME    CH3   39   6.462  12.269   7.837 -1.1648  0.0153  0.3436
    5NME   HH31   40   6.549  12.304   7.893 -1.7321  1.4609  0.3591
    5NME   HH32   41   6.408  12.363   7.825  0.8519  1.2061  0.1607
    5NME   HH33   42   6.416  12.183   7.885  0.1746 -0.3155  1.0892
  20.91516  20.91516  20.91516
