Protein
   42
    1ACE   HH31    1   6.180  12.835   8.005  2.5362  1.9480 -2.3928
    1ACE    CH3    2   6.181  12.906   8.087  0.1988 -0.2763 -0.3020
    1ACE   HH32    3   6.084  12.901   8.137 -0.5884  0.9314 -1.6282
    1ACE   HH33    4   6.180  13.001   8.034  1.2857 -0.6459 -1.0056
    1ACE      C    5   6.303  12.879   8.172 -0.5983 -0.1591 -0.5289
    1ACE      O    6   6.405  12.941   8.156 -0.3320  0.0681  0.0965
    2ALA      N    7   6.287  12.779   8.265  0.4517  0.2111  0.0455
    2ALA      H    8   6.189  12.759   8.280 -0.7484  4.2995 -0.8837
    2ALA     CA    9   6.386  12.723   8.355  0.5690 -0.4792  0.1631
    2ALA     HA   10   6.324  12.653   8.411 -0.5826  0.3177 -0.0895
    2ALA     CB   11   6.482  12.633   8.281  0.2445  0.5361 -0.0230
    2ALA    HB1   12   6.530  12.561   8.348 -0.7300 -0.4115 -0.3179
    2ALA    HB2   13   6.421  12.581   8.208  0.5357  1.5698 -1.0210
    2ALA    HB3   14   6.560  12.690   8.230 -0.6011 -1.0305 -3.3242
    2ALA      C   15   6.444  12.819   8.460  0.2139 -0.3993 -0.4666
    2ALA      O   16   6.464  12.778   8.574  0.2271  0.3046  0.2082
    3ALA      N   17   6.456  12.946   8.426 -0.0077  0.3701  0.1696
    3ALA      H   18   6.439  12.951   8.327 -1.2874 -0.6141  0.3110
    3ALA     CA   19   6.483  13.053   8.512 -0.2597  0.1463 -0.3934
    3ALA     HA   20   6.427  13.037   8.604  2.1780  2.5764  1.7079
    3ALA     CB   21   6.636  13.069   8.544  0.0089 -0.1920 -0.2053
    3ALA    HB1   22   6.678  12.971   8.567  1.0366  0.2317 -0.2089
    3ALA    HB2   23   6.698  13.105   8.461 -0.0609  0.3177 -0.0388
    3ALA    HB3   24   6.651  13.132   8.632 -0.6240  0.0907 -0.2994
    3ALA      C   25   6.437  13.183   8.450  0.2519 -0.6889  0.2474
    3ALA      O   26   6.391  13.279   8.515  0.3615 -0.3384 -0.1836
    4ALA      N   27   6.435  13.190   8.316  0.4779  0.0392  0.8161
    4ALA      H   28   6.454  13.113   8.253  1.7535  1.2070 -0.2860
    4ALA     CA   29   6.370  13.296   8.249 -0.3353 -0.3830  0.1249
    4ALA     HA   30   6.414  13.392   8.277  1.5704 -1.5219  1.2838
    4ALA     CB   31   6.404  13.281   8.101  0.5553  0.1442  0.9601
    4ALA    HB1   32   6.508  13.270   8.071 -0.2294 -2.9559 -1.3151
    4ALA    HB2   33   6.359  13.185   8.074  0.1531  0.6803 -0.3857
    4ALA    HB3   34   6.344  13.355   8.048 -1.8483 -2.1862  0.1713
    4ALA      C   35   6.220  13.321   8.276  0.0925 -0.1670 -0.0417
    4ALA      O   36   6.135  13.250   8.218 -0.8128  0.1933 -0.2897
    5NME      N   37   6.187  13.415   8.372  0.1873 -0.1935  0.3273
    5NME      H   38   6.263  13.438   8.434  1.4513 -1.2623 -0.7647
    5NME    CH3   39   6.052  13.462   8.405 -0.5495  0.1548  0.7806
    5NME   HH31   40   5.995  13.380   8.449 -0.4929  0.7021  1.9287
    5NME   HH32   41   6.068  13.550   8.467  1.5536 -1.3928  2.5906
    5NME   HH33   42   5.986  13.480   8.320 -0.5070 -1.5070  0.3576
  20.91516  20.91516  20.91516
