Protein
   32
    1ACE   HH31    1  11.144  12.508  11.272  1.2245 -2.4543 -0.9116
    1ACE    CH3    2  11.043  12.487  11.238  0.4301 -0.2224 -0.0745
    1ACE   HH32    3  10.975  12.569  11.261  0.4415 -0.7960  2.3664
    1ACE   HH33    4  11.007  12.396  11.286 -0.3131 -0.5218 -1.1690
    1ACE      C    5  11.045  12.450  11.092  0.2291  0.0748  0.1119
    1ACE      O    6  11.002  12.340  11.050 -0.1745 -0.6417 -0.2678
    2ALA      N    7  11.107  12.542  11.011  0.1728 -0.2115  0.2172
    2ALA      H    8  11.162  12.613  11.056 -0.7423  0.1880  0.7080
    2ALA     CA    9  11.134  12.512  10.861 -0.8756  0.0828  0.3119
    2ALA     HA   10  11.157  12.406  10.853  0.0944  0.3440 -0.6811
    2ALA     CB   11  11.018  12.550  10.772 -0.4584 -0.0687  0.5876
    2ALA    HB1   12  11.030  12.501  10.675  3.0784 -2.4190  2.0151
    2ALA    HB2   13  10.929  12.507  10.819  0.0248 -0.6187  1.0246
    2ALA    HB3   14  11.009  12.658  10.761 -0.3672 -0.0472  0.7134
    2ALA      C   15  11.265  12.583  10.810 -0.2983 -0.3634 -0.1589
    2ALA      O   16  11.361  12.587  10.885  0.2258  0.0138  0.5533
    3ALA      N   17  11.267  12.630  10.685 -0.5316 -0.2299 -0.8376
    3ALA      H   18  11.191  12.610  10.621  0.0087 -0.4415 -1.4209
    3ALA     CA   19  11.384  12.700  10.623  0.0567  0.2408  0.0725
    3ALA     HA   20  11.472  12.683  10.685 -1.2039  1.0320  2.1500
    3ALA     CB   21  11.400  12.627  10.482  0.2109  0.2349 -0.3495
    3ALA    HB1   22  11.385  12.519  10.490  2.1074  0.0686  2.5840
    3ALA    HB2   23  11.319  12.660  10.417  0.0550  0.4757 -0.0264
    3ALA    HB3   24  11.502  12.637  10.443  0.2209 -1.1761 -0.7757
    3ALA      C   25  11.358  12.848  10.615 -0.4353 -0.1547  0.2033
    3ALA      O   26  11.241  12.898  10.619 -0.2151 -0.2102 -0.3609
    4NME      N   27  11.471  12.920  10.593  0.3792 -0.0101 -0.1063
    4NME      H   28  11.560  12.874  10.574  1.8574  3.0987 -1.3820
    4NME    CH3   29  11.477  13.069  10.598  0.4259 -0.0617  0.4199
    4NME   HH31   30  11.386  13.114  10.638  1.0749 -1.8121  4.2085
    4NME   HH32   31  11.560  13.105  10.658  0.8629 -1.4639  0.6861
    4NME   HH33   32  11.495  13.098  10.494 -0.4040 -4.4503 -1.1449
  20.99041  20.99041  20.99041
