Protein
   42
    1ACE   HH31    1  20.045  16.985  15.306  1.8256 -0.4052  2.3572
    1ACE    CH3    2  20.130  16.951  15.247  0.5833 -0.0066  0.2286
    1ACE   HH32    3  20.104  16.875  15.173 -2.4661  0.4296  0.7097
    1ACE   HH33    4  20.205  16.918  15.319  0.2274  0.3356  0.7626
    1ACE      C    5  20.187  17.071  15.164 -0.6313  0.6171 -0.2130
    1ACE      O    6  20.128  17.178  15.157 -0.4550 -0.1325  0.0990
    2ALA      N    7  20.303  17.048  15.113 -0.2803 -0.4387 -0.1270
    2ALA      H    8  20.346  16.957  15.127 -1.1241 -1.0946 -1.5591
    2ALA     CA    9  20.370  17.128  15.006  0.0851  0.4942 -0.6849
    2ALA     HA   10  20.292  17.193  14.967 -0.4592 -0.2571 -0.8919
    2ALA     CB   11  20.480  17.214  15.071 -0.5144 -0.1278 -0.4764
    2ALA    HB1   12  20.551  17.159  15.132 -0.7428 -0.4510 -0.5066
    2ALA    HB2   13  20.528  17.275  14.994 -0.2640 -0.3208 -0.4747
    2ALA    HB3   14  20.431  17.292  15.131 -0.5224  0.0639 -0.7296
    2ALA      C   15  20.420  17.043  14.887 -0.3673  0.1542 -0.1832
    2ALA      O   16  20.470  16.933  14.914 -0.0493  0.6823 -0.2651
    3ALA      N   17  20.418  17.092  14.764  0.2136  0.2746 -0.5708
    3ALA      H   18  20.377  17.184  14.757 -0.7823  0.0645  1.7178
    3ALA     CA   19  20.435  17.029  14.634 -0.3516  0.3946  0.2920
    3ALA     HA   20  20.341  17.042  14.581  0.5259 -0.7596 -1.6324
    3ALA     CB   21  20.547  17.099  14.566 -0.0918 -0.3378  0.3440
    3ALA    HB1   22  20.566  17.051  14.470 -3.2541 -0.3575 -0.4055
    3ALA    HB2   23  20.519  17.203  14.549 -1.3975 -0.8307 -0.7315
    3ALA    HB3   24  20.633  17.090  14.632  1.4962  1.9514 -1.2618
    3ALA      C   25  20.446  16.876  14.625 -0.3443 -0.2586 -0.0632
    3ALA      O   26  20.359  16.812  14.571  0.6915  0.3384  0.1541
    4ALA      N   27  20.544  16.810  14.689  0.0771  0.5226  0.4939
    4ALA      H   28  20.622  16.863  14.727  2.2254 -1.8454 -0.2878
    4ALA     CA   29  20.571  16.667  14.668  0.7919 -0.0581  0.7103
    4ALA     HA   30  20.502  16.628  14.593  0.8640  1.3159 -0.1067
    4ALA     CB   31  20.709  16.655  14.602 -0.1223 -0.0435 -0.1838
    4ALA    HB1   32  20.783  16.699  14.668 -0.8382 -0.2066  0.7521
    4ALA    HB2   33  20.733  16.552  14.578  0.4491  0.3473 -1.4056
    4ALA    HB3   34  20.705  16.706  14.505 -0.4413  0.5036  0.1149
    4ALA      C   35  20.558  16.583  14.798  0.1936 -0.6635 -0.1627
    4ALA      O   36  20.574  16.464  14.803  0.5089  0.2708  0.0459
    5NME      N   37  20.524  16.652  14.910 -0.2170 -0.5607  0.3937
    5NME      H   38  20.519  16.753  14.903 -0.5541 -0.6178 -0.3705
    5NME    CH3   39  20.526  16.601  15.050  0.3719  0.4590  0.5083
    5NME   HH31   40  20.547  16.683  15.118  1.6041 -0.2664  1.0546
    5NME   HH32   41  20.428  16.557  15.069 -0.8845  0.8641 -3.9808
    5NME   HH33   42  20.600  16.521  15.057  1.9455  1.8318 -0.0589
  20.91516  20.91516  20.91516
