Protein
   42
    1ACE   HH31    1  14.970  13.183   7.604 -0.6252 -1.1057  0.9450
    1ACE    CH3    2  15.041  13.100   7.599 -0.1358 -0.6335 -0.0922
    1ACE   HH32    3  15.041  13.039   7.689  1.5639  0.3705  0.6332
    1ACE   HH33    4  15.132  13.159   7.595 -1.0247  0.8088  0.3998
    1ACE      C    5  15.009  13.018   7.475  0.0082  0.0182  0.4224
    1ACE      O    6  15.030  13.056   7.359 -0.0125 -0.2290 -0.0962
    2ALA      N    7  14.938  12.904   7.504 -0.0049 -0.1160 -0.0087
    2ALA      H    8  14.934  12.883   7.603 -2.9979  2.4004  0.5601
    2ALA     CA    9  14.873  12.823   7.403 -0.5808 -0.6612  0.3967
    2ALA     HA   10  14.828  12.891   7.331  0.5733  1.1669  1.3227
    2ALA     CB   11  14.985  12.735   7.339 -0.6878  0.2802 -0.7905
    2ALA    HB1   12  14.937  12.674   7.262 -0.9550 -0.1991 -0.2608
    2ALA    HB2   13  15.065  12.796   7.298 -0.1597 -0.7562 -1.3424
    2ALA    HB3   14  15.027  12.673   7.418  0.1958  0.2652 -1.2669
    2ALA      C   15  14.756  12.739   7.468 -0.2407  0.4805  0.1167
    2ALA      O   16  14.687  12.678   7.393 -0.0617  0.1760  0.6107
    3ALA      N   17  14.739  12.737   7.605  0.2732 -0.2256  0.5063
    3ALA      H   18  14.807  12.791   7.657 -1.0953  0.3535  1.7551
    3ALA     CA   19  14.703  12.612   7.678 -0.1668  0.5406 -0.1527
    3ALA     HA   20  14.596  12.596   7.686 -0.3107 -0.3214 -2.8097
    3ALA     CB   21  14.757  12.482   7.608 -0.1517  0.2111  0.5800
    3ALA    HB1   22  14.750  12.391   7.667 -1.7626 -0.6847 -0.8834
    3ALA    HB2   23  14.697  12.457   7.521  1.1157  0.1391 -0.2961
    3ALA    HB3   24  14.861  12.490   7.579 -0.7471 -3.2801 -3.3546
    3ALA      C   25  14.777  12.619   7.813 -0.2025  0.4134  0.3876
    3ALA      O   26  14.888  12.677   7.811  0.1628 -0.5743 -0.1341
    4ALA      N   27  14.719  12.566   7.925  0.1104  0.2327 -0.0713
    4ALA      H   28  14.625  12.530   7.914  0.6812 -1.0482 -0.9620
    4ALA     CA   29  14.754  12.572   8.070 -0.5006  0.2098 -0.1473
    4ALA     HA   30  14.665  12.540   8.124 -0.0458 -1.8316 -0.5183
    4ALA     CB   31  14.845  12.456   8.098  0.0765  0.4692 -0.0933
    4ALA    HB1   32  14.816  12.363   8.049  0.4446 -1.0620  2.4522
    4ALA    HB2   33  14.949  12.485   8.092 -0.5898  2.9764 -0.6679
    4ALA    HB3   34  14.829  12.435   8.203 -0.7313  0.2641 -0.2407
    4ALA      C   35  14.802  12.706   8.129 -0.0263 -0.4441  0.1857
    4ALA      O   36  14.756  12.748   8.235  0.4537  0.3843 -0.3038
    5NME      N   37  14.891  12.784   8.065  0.1253 -0.6953 -0.0703
    5NME      H   38  14.898  12.744   7.972 -1.4428  1.9571 -1.4927
    5NME    CH3   39  14.969  12.896   8.117  1.0110 -0.4605  0.4308
    5NME   HH31   40  14.930  12.944   8.206 -1.0655 -1.8458  0.3345
    5NME   HH32   41  15.060  12.852   8.160  0.5999  0.7879  2.6886
    5NME   HH33   42  14.997  12.962   8.035 -0.8712 -0.7104 -0.4461
  20.91516  20.91516  20.91516
