Protein
   22
    1ACE   HH31    1   4.428   5.354   6.755  0.3158 -1.9919  0.5598
    1ACE    CH3    2   4.447   5.326   6.651  0.1663 -0.3905  0.0791
    1ACE   HH32    3   4.532   5.258   6.652  1.5542  1.2127 -2.0998
    1ACE   HH33    4   4.480   5.407   6.586 -0.2701  1.5143  2.0981
    1ACE      C    5   4.322   5.251   6.605 -0.5442 -0.4140  0.1233
    1ACE      O    6   4.330   5.129   6.574 -0.0553 -0.0799 -0.1049
    2ALA      N    7   4.210   5.321   6.620  0.2413 -0.2517  0.0083
    2ALA      H    8   4.221   5.410   6.666 -0.8153 -0.8874  1.5962
    2ALA     CA    9   4.077   5.268   6.585 -0.2606  0.8513  0.8316
    2ALA     HA   10   4.081   5.160   6.582 -1.6332  0.7707  1.0868
    2ALA     CB   11   3.997   5.295   6.717  0.1262  0.9715 -0.7354
    2ALA    HB1   12   3.895   5.257   6.712  0.4372  0.2552 -1.8824
    2ALA    HB2   13   4.048   5.247   6.801 -0.5490 -1.3708 -1.5729
    2ALA    HB3   14   3.989   5.400   6.746 -1.1800  0.6123  0.3753
    2ALA      C   15   4.003   5.310   6.455 -0.3874 -0.5633  0.2013
    2ALA      O   16   4.066   5.316   6.351  0.7726  0.0216  0.0919
    3NME      N   17   3.869   5.343   6.460 -0.6111 -0.6287 -0.3455
    3NME      H   18   3.835   5.337   6.555 -1.2538  0.1884 -0.5198
    3NME    CH3   19   3.779   5.389   6.361 -1.0011 -0.6040 -0.2630
    3NME   HH31   20   3.831   5.380   6.265  0.2611 -1.8881  0.4940
    3NME   HH32   21   3.687   5.329   6.363  0.2021 -2.5253  0.3638
    3NME   HH33   22   3.757   5.495   6.375 -1.6608 -0.6535 -0.8535
  10.72160  10.72160  10.72160
