Protein
   32
    1ACE   HH31    1  16.201   4.329   9.899 -1.7968 -2.8971  0.8381
    1ACE    CH3    2  16.142   4.360   9.813  0.4552  0.4832  0.3140
    1ACE   HH32    3  16.048   4.406   9.842  0.1089 -0.7084  1.1654
    1ACE   HH33    4  16.115   4.268   9.760 -0.6055 -0.1173  1.8253
    1ACE      C    5  16.216   4.458   9.727  0.1635 -0.0768 -0.1141
    1ACE      O    6  16.336   4.491   9.739  0.4341  0.5356  0.0944
    2ALA      N    7  16.150   4.498   9.621  0.3225  0.1436  0.3660
    2ALA      H    8  16.050   4.483   9.625  0.1874  1.0810  1.1199
    2ALA     CA    9  16.206   4.590   9.527  0.5911  0.6504 -0.4297
    2ALA     HA   10  16.315   4.585   9.525  0.6795  2.3692 -1.8922
    2ALA     CB   11  16.177   4.546   9.383  0.1488  0.0399 -0.0524
    2ALA    HB1   12  16.075   4.572   9.353  0.6677  1.6832 -0.4948
    2ALA    HB2   13  16.228   4.607   9.308  4.4010 -1.6918  1.1206
    2ALA    HB3   14  16.212   4.443   9.370 -2.4931 -1.3159  2.4359
    2ALA      C   15  16.166   4.741   9.560  0.1593 -0.5336  0.0730
    2ALA      O   16  16.144   4.781   9.671 -0.1355 -0.4313 -0.1764
    3ALA      N   17  16.156   4.819   9.454  0.3707  0.8050  0.3158
    3ALA      H   18  16.162   4.771   9.366 -0.9055 -1.2326  1.2772
    3ALA     CA   19  16.122   4.959   9.451 -0.7843 -0.0581 -0.0235
    3ALA     HA   20  16.181   5.008   9.528  0.8742 -2.6391  0.4712
    3ALA     CB   21  16.166   5.008   9.310  0.3726  0.6716 -0.0304
    3ALA    HB1   22  16.090   4.982   9.235  1.5961 -0.5495 -0.9094
    3ALA    HB2   23  16.162   5.117   9.314 -1.3913  0.6483 -0.1218
    3ALA    HB3   24  16.256   4.960   9.273 -1.8240 -2.4063 -1.9307
    3ALA      C   25  15.979   4.992   9.482  0.1917  0.3732  0.7702
    3ALA      O   26  15.903   5.020   9.392 -0.1285 -0.3776 -0.2168
    4NME      N   27  15.939   4.982   9.610  0.2953 -0.2459 -0.0997
    4NME      H   28  16.007   4.959   9.681 -1.0232  2.7299  2.3532
    4NME    CH3   29  15.805   4.997   9.660  0.7010 -0.0025 -0.2232
    4NME   HH31   30  15.796   4.995   9.769 -2.5824 -1.6291 -0.4069
    4NME   HH32   31  15.773   5.090   9.614 -3.2213 -1.4670 -0.7907
    4NME   HH33   32  15.745   4.910   9.632  1.5371 -0.7749  0.3085
  20.99041  20.99041  20.99041
