Protein
   32
    1ACE   HH31    1  12.958  18.743   8.497  0.2107 -1.5981  1.2829
    1ACE    CH3    2  12.861  18.772   8.537  0.5384  0.6330  0.5915
    1ACE   HH32    3  12.812  18.843   8.470 -0.7378  1.1387  2.0007
    1ACE   HH33    4  12.869  18.821   8.634 -0.4770  0.7824  0.6158
    1ACE      C    5  12.773  18.647   8.528  0.0639  1.0928 -0.0748
    1ACE      O    6  12.816  18.544   8.478  0.2740  0.1762 -0.0028
    2ALA      N    7  12.650  18.658   8.576 -0.3405  0.0945  0.1567
    2ALA      H    8  12.616  18.751   8.600  1.0364  0.2465  1.6591
    2ALA     CA    9  12.550  18.551   8.590  0.2426 -0.4483  0.0818
    2ALA     HA   10  12.469  18.596   8.647 -0.8288 -0.6725 -1.2069
    2ALA     CB   11  12.489  18.529   8.454 -0.0750 -0.5605 -0.0479
    2ALA    HB1   12  12.569  18.515   8.382 -0.4628 -0.0824 -0.5920
    2ALA    HB2   13  12.425  18.440   8.455 -4.1389  2.0751  0.8641
    2ALA    HB3   14  12.431  18.612   8.412  1.1957 -0.5765 -1.9581
    2ALA      C   15  12.605  18.430   8.670  0.1304 -0.1358 -0.2387
    2ALA      O   16  12.685  18.443   8.764  0.1948 -0.5188 -0.1059
    3ALA      N   17  12.574  18.307   8.617 -0.6749 -0.1872  0.0208
    3ALA      H   18  12.522  18.312   8.531 -1.7751  2.4687  0.7665
    3ALA     CA   19  12.651  18.183   8.629 -0.3373  0.2499  0.2721
    3ALA     HA   20  12.615  18.124   8.713 -0.5532 -1.1204 -0.7295
    3ALA     CB   21  12.641  18.111   8.492  0.2362  0.1773  0.1538
    3ALA    HB1   22  12.540  18.071   8.487  0.0815  0.2982  1.8378
    3ALA    HB2   23  12.656  18.178   8.407  2.3511  0.5712  0.7692
    3ALA    HB3   24  12.715  18.032   8.487 -0.3352 -0.2929 -2.4264
    3ALA      C   25  12.800  18.190   8.672  0.1039 -0.1703 -0.9330
    3ALA      O   26  12.839  18.111   8.751  0.2415 -0.1058  0.3058
    4NME      N   27  12.882  18.280   8.614  0.2246 -0.1629 -0.3972
    4NME      H   28  12.838  18.362   8.574 -1.3185 -0.3339  0.8848
    4NME    CH3   29  13.030  18.312   8.635  0.2897  0.7087 -0.0632
    4NME   HH31   30  13.051  18.321   8.742  0.0989  2.0640 -0.1188
    4NME   HH32   31  13.097  18.236   8.594  0.3918  2.5510 -3.6514
    4NME   HH33   32  13.041  18.413   8.595 -2.1063  1.1275  0.1565
  20.99041  20.99041  20.99041
