Protein
   42
    1ACE   HH31    1   7.563  11.598  17.776 -0.0623  0.0970 -1.3907
    1ACE    CH3    2   7.561  11.706  17.762 -0.0289  0.2223 -0.4863
    1ACE   HH32    3   7.523  11.741  17.667 -0.6123 -0.0214 -0.3488
    1ACE   HH33    4   7.663  11.744  17.764 -0.7746  2.3698 -0.3035
    1ACE      C    5   7.480  11.764  17.878  0.1898  0.5574  0.6958
    1ACE      O    6   7.536  11.846  17.951  0.3686 -0.2650 -0.1340
    2ALA      N    7   7.356  11.722  17.894 -0.3570 -0.0822 -0.5004
    2ALA      H    8   7.323  11.655  17.826  0.2184 -0.6614 -0.2100
    2ALA     CA    9   7.278  11.745  18.020  0.5323 -0.0741  0.5033
    2ALA     HA   10   7.337  11.809  18.086 -1.2461  2.4263 -0.1909
    2ALA     CB   11   7.149  11.818  17.999 -0.3358 -0.4291 -0.0630
    2ALA    HB1   12   7.081  11.767  17.931 -1.0605  0.4960 -0.0714
    2ALA    HB2   13   7.095  11.845  18.090  1.2985  2.6642  0.1073
    2ALA    HB3   14   7.168  11.910  17.945 -1.2170 -0.9838 -1.3760
    2ALA      C   15   7.246  11.617  18.089  0.0711  0.5993 -0.7310
    2ALA      O   16   7.159  11.540  18.041 -0.5282  0.2425  0.0302
    3ALA      N   17   7.302  11.576  18.201 -0.1565  0.5444 -0.0597
    3ALA      H   18   7.270  11.486  18.234 -1.1224  1.1999  0.8385
    3ALA     CA   19   7.421  11.622  18.269  0.1785  0.5811  0.3740
    3ALA     HA   20   7.415  11.729  18.287  2.0282  0.9955 -1.1360
    3ALA     CB   21   7.450  11.536  18.396  0.4643 -0.2659  0.1777
    3ALA    HB1   22   7.539  11.570  18.449 -1.0081  1.2655  1.7987
    3ALA    HB2   23   7.376  11.565  18.471  0.6555 -2.2277  1.1904
    3ALA    HB3   24   7.448  11.430  18.371 -0.7948 -0.0575 -0.6573
    3ALA      C   25   7.546  11.620  18.175 -0.1709 -0.0251 -0.0899
    3ALA      O   26   7.560  11.538  18.084  0.7835 -0.0227 -0.2079
    4ALA      N   27   7.649  11.701  18.209 -0.1313  0.6666  0.2489
    4ALA      H   28   7.640  11.762  18.289  1.3456  0.9102  0.2752
    4ALA     CA   29   7.771  11.709  18.137  0.0793 -0.0278 -0.0256
    4ALA     HA   30   7.751  11.694  18.031  0.0872 -3.9555  0.3984
    4ALA     CB   31   7.823  11.855  18.140  0.5104  0.2314  0.0233
    4ALA    HB1   32   7.732  11.915  18.130  0.0369 -0.1519  1.6727
    4ALA    HB2   33   7.868  11.885  18.234 -0.3430  0.7482  0.2807
    4ALA    HB3   34   7.885  11.871  18.052 -0.2980 -0.2924 -0.6641
    4ALA      C   35   7.872  11.592  18.148  0.0370 -1.0352 -1.0688
    4ALA      O   36   7.985  11.622  18.184 -0.3303 -0.3405  0.2194
    5NME      N   37   7.824  11.471  18.141  0.2964  0.2385 -0.1904
    5NME      H   38   7.729  11.456  18.108  0.0232 -0.7034  0.9488
    5NME    CH3   39   7.913  11.352  18.129 -0.1617 -0.3065 -0.1745
    5NME   HH31   40   7.871  11.282  18.056 -0.2428 -1.3622  0.8624
    5NME   HH32   41   8.006  11.377  18.078 -0.2119 -0.3386 -0.2804
    5NME   HH33   42   7.936  11.304  18.223 -2.7898  1.1788  1.3438
  20.91516  20.91516  20.91516
