Protein
   42
    1ACE   HH31    1  13.930  20.275  10.776  2.6245  0.8559 -1.8186
    1ACE    CH3    2  13.924  20.380  10.803  0.1475  0.3103  0.2057
    1ACE   HH32    3  13.823  20.417  10.790 -0.7554 -1.8537  0.6435
    1ACE   HH33    4  13.994  20.439  10.743  0.8548  0.7118  1.3918
    1ACE      C    5  13.967  20.404  10.946 -0.6043 -0.1541 -0.1992
    1ACE      O    6  14.081  20.440  10.971  0.4075  0.3079 -0.0290
    2ALA      N    7  13.872  20.391  11.037  0.4687 -0.0174  0.1565
    2ALA      H    8  13.784  20.347  11.014 -0.9281  2.1444  0.9190
    2ALA     CA    9  13.898  20.422  11.177  0.5442  0.9248 -0.3297
    2ALA     HA   10  13.933  20.525  11.182  1.2280  0.6290  2.2610
    2ALA     CB   11  13.756  20.420  11.247 -0.5588 -0.2041  0.3850
    2ALA    HB1   12  13.759  20.493  11.327 -0.9222 -0.5928  0.7608
    2ALA    HB2   13  13.679  20.451  11.176 -0.9220 -0.5578  0.6205
    2ALA    HB3   14  13.728  20.328  11.298 -0.3404 -0.4594  0.0486
    2ALA      C   15  13.999  20.318  11.241  0.2174 -0.4155 -0.4557
    2ALA      O   16  14.006  20.208  11.191  0.2496  0.0800  0.0584
    3ALA      N   17  14.079  20.341  11.344 -0.2257  0.3215  0.1363
    3ALA      H   18  14.127  20.257  11.372 -3.3515 -1.2622  1.2554
    3ALA     CA   19  14.115  20.473  11.392  0.1869  0.2673  0.5640
    3ALA     HA   20  14.016  20.517  11.406  0.2330  0.7580 -0.5808
    3ALA     CB   21  14.174  20.468  11.539 -0.2237  0.4101 -0.0739
    3ALA    HB1   22  14.203  20.570  11.562  0.6858 -0.1436  1.3551
    3ALA    HB2   23  14.096  20.445  11.612  0.7196  0.6438  1.0296
    3ALA    HB3   24  14.257  20.398  11.538 -1.3327 -0.9579 -1.2404
    3ALA      C   25  14.206  20.547  11.282 -0.3909 -0.4414  0.8098
    3ALA      O   26  14.210  20.669  11.274  0.1788  0.6922 -0.2994
    4ALA      N   27  14.287  20.464  11.209  0.6459  0.1320  0.1735
    4ALA      H   28  14.268  20.367  11.231 -0.0857  0.1822 -0.1964
    4ALA     CA   29  14.390  20.494  11.115 -0.0614  1.0223 -0.1023
    4ALA     HA   30  14.481  20.500  11.175 -0.2489 -0.4747  0.3757
    4ALA     CB   31  14.404  20.383  11.006 -0.5394 -0.4977  0.3435
    4ALA    HB1   32  14.406  20.287  11.057 -3.2947 -0.9985 -0.3355
    4ALA    HB2   33  14.315  20.397  10.946 -0.6072  1.8381  0.8711
    4ALA    HB3   34  14.495  20.395  10.948 -1.2138 -2.2173 -1.1625
    4ALA      C   35  14.381  20.635  11.056 -0.3007 -0.2029  1.4535
    4ALA      O   36  14.470  20.710  11.075 -0.4682 -0.3244 -0.1952
    5NME      N   37  14.271  20.665  10.984 -0.2602 -0.2480 -0.1345
    5NME      H   38  14.201  20.593  10.973 -1.1003 -0.1921  3.5560
    5NME    CH3   39  14.260  20.793  10.915  0.2310 -0.6095 -0.4564
    5NME   HH31   40  14.356  20.831  10.881  0.4991  0.1641  1.0788
    5NME   HH32   41  14.196  20.779  10.828  1.0899  1.7296 -1.5203
    5NME   HH33   42  14.219  20.870  10.981  0.6599  0.2397 -1.1673
  20.91516  20.91516  20.91516
