Protein
   22
    1ACE   HH31    1   7.126   7.081   6.969  1.6622 -0.2842 -0.2385
    1ACE    CH3    2   7.123   7.032   6.871  0.0760 -0.4600 -0.1348
    1ACE   HH32    3   7.026   6.994   6.843  0.0927 -2.6632  2.3864
    1ACE   HH33    4   7.188   6.945   6.879 -0.2344 -0.6593  0.2562
    1ACE      C    5   7.197   7.132   6.777  0.5660  0.5627  0.3365
    1ACE      O    6   7.315   7.119   6.757 -0.4658  0.2082 -0.0520
    2ALA      N    7   7.114   7.229   6.728  0.0425 -0.3836 -0.2138
    2ALA      H    8   7.017   7.228   6.755 -0.3607  0.1761 -1.5944
    2ALA     CA    9   7.156   7.326   6.625  0.4318 -0.1441 -0.8101
    2ALA     HA   10   7.074   7.397   6.624 -1.2123 -1.9666 -0.9346
    2ALA     CB   11   7.284   7.410   6.664 -0.5502 -0.2692  0.3806
    2ALA    HB1   12   7.274   7.473   6.753  1.5964  3.2240 -1.5917
    2ALA    HB2   13   7.371   7.346   6.673  0.6993  1.4429  0.8514
    2ALA    HB3   14   7.309   7.474   6.579 -2.2174  0.3858  0.3401
    2ALA      C   15   7.152   7.274   6.482 -0.1389 -0.3467 -0.2807
    2ALA      O   16   7.156   7.156   6.455 -0.7426 -0.0211 -0.3436
    3NME      N   17   7.131   7.356   6.379 -0.3164 -0.0919 -0.6803
    3NME      H   18   7.111   7.452   6.404 -2.2151 -1.1558  2.5695
    3NME    CH3   19   7.088   7.313   6.247  0.2360 -0.5357 -0.5269
    3NME   HH31   20   7.042   7.393   6.189  0.1078 -1.1038 -1.2395
    3NME   HH32   21   7.171   7.276   6.186  2.1590  2.6453 -0.0209
    3NME   HH33   22   7.017   7.230   6.257 -1.1768  0.8373  1.7246
  10.72160  10.72160  10.72160
