Protein
   42
    1ACE   HH31    1   9.821  14.744  11.854 -0.6266  0.3430  0.6695
    1ACE    CH3    2   9.894  14.815  11.816 -0.8699  0.0073 -0.4593
    1ACE   HH32    3   9.875  14.919  11.841  1.1408 -0.2057  2.6377
    1ACE   HH33    4   9.911  14.799  11.710  1.8889  2.1257 -0.4288
    1ACE      C    5  10.020  14.765  11.889  0.4593  0.4568  0.6548
    1ACE      O    6  10.032  14.642  11.902  0.3366 -0.2989 -0.8745
    2ALA      N    7  10.105  14.858  11.929 -0.4641  0.0905 -0.3061
    2ALA      H    8  10.091  14.949  11.887 -0.4718 -0.2243 -0.9800
    2ALA     CA    9  10.207  14.844  12.037  0.5882  0.6968 -0.1963
    2ALA     HA   10  10.263  14.752  12.019 -1.6631 -0.6709 -0.6291
    2ALA     CB   11  10.291  14.969  12.022 -0.1057  0.2362 -0.4348
    2ALA    HB1   12  10.360  14.969  12.107  0.7980 -2.6922 -1.0493
    2ALA    HB2   13  10.358  14.963  11.936  1.0661 -2.3159  0.5077
    2ALA    HB3   14  10.239  15.064  12.027 -2.7716 -1.0901 -0.7938
    2ALA      C   15  10.139  14.836  12.174 -0.2041  0.1651  0.0881
    2ALA      O   16  10.086  14.935  12.222 -0.1692 -0.0285 -0.2247
    3ALA      N   17  10.122  14.717  12.233 -0.0657  0.2600 -0.1030
    3ALA      H   18  10.068  14.724  12.318  0.6009  1.8281  0.2416
    3ALA     CA   19  10.152  14.580  12.182 -0.0797  0.4832 -0.1577
    3ALA     HA   20  10.191  14.588  12.081  1.6463  1.3453  0.5432
    3ALA     CB   21  10.278  14.534  12.260 -0.2077 -0.6967  0.2340
    3ALA    HB1   22  10.349  14.617  12.256 -1.7138  0.6036 -1.6225
    3ALA    HB2   23  10.240  14.519  12.361 -3.2611  2.3920 -0.2519
    3ALA    HB3   24  10.311  14.436  12.226 -0.0281 -0.0799 -1.4832
    3ALA      C   25  10.032  14.479  12.180 -0.8086 -0.4823 -0.2024
    3ALA      O   26  10.058  14.364  12.166  0.0882  0.7639 -0.4414
    4ALA      N   27   9.907  14.519  12.204  0.6933 -0.3217  0.1799
    4ALA      H   28   9.880  14.616  12.212 -0.9233 -0.6351 -0.8958
    4ALA     CA   29   9.785  14.428  12.209 -0.4540  0.4240  0.1118
    4ALA     HA   30   9.814  14.346  12.274 -0.0173  0.5719  0.1015
    4ALA     CB   31   9.665  14.510  12.267  0.2986 -0.0555 -0.3576
    4ALA    HB1   32   9.642  14.591  12.198 -1.8061 -1.4062 -1.3310
    4ALA    HB2   33   9.579  14.445  12.283 -0.3887  1.2742  1.7790
    4ALA    HB3   34   9.688  14.560  12.361 -2.0901 -2.4165  1.6304
    4ALA      C   35   9.753  14.342  12.077  0.4137  0.0394  0.2461
    4ALA      O   36   9.651  14.369  12.014  0.0837 -0.1717  0.1751
    5NME      N   37   9.826  14.241  12.047 -0.1502 -0.2631 -0.0874
    5NME      H   38   9.918  14.244  12.088 -0.3102  0.8019  0.2229
    5NME    CH3   39   9.801  14.146  11.935 -0.7377  0.1355 -0.2942
    5NME   HH31   40   9.744  14.190  11.853 -1.9063  0.4564  0.6673
    5NME   HH32   41   9.903  14.137  11.899 -0.4254  0.7516  0.4098
    5NME   HH33   42   9.764  14.048  11.965 -0.5395 -0.3147 -1.4822
  20.91516  20.91516  20.91516
