Protein
   42
    1ACE   HH31    1   7.062   2.602   9.356  1.2552 -0.4424 -0.8109
    1ACE    CH3    2   7.031   2.679   9.284 -0.1761 -0.1461  0.0631
    1ACE   HH32    3   7.102   2.661   9.204 -0.0450  1.6724 -0.2606
    1ACE   HH33    4   7.032   2.774   9.337  0.1491 -0.2030  0.1645
    1ACE      C    5   6.888   2.667   9.229  0.0688  0.0689  0.4478
    1ACE      O    6   6.822   2.763   9.200  0.0321 -0.5378  0.0875
    2ALA      N    7   6.837   2.547   9.204  1.1479  0.1236  0.2730
    2ALA      H    8   6.897   2.469   9.224  0.4943 -0.7293 -0.8944
    2ALA     CA    9   6.694   2.515   9.173 -0.4259  0.4083 -0.7277
    2ALA     HA   10   6.671   2.415   9.210  0.4153 -0.0706 -1.4713
    2ALA     CB   11   6.594   2.601   9.253 -0.4692  0.4524 -0.9138
    2ALA    HB1   12   6.490   2.570   9.238 -0.4107 -0.2827  0.0691
    2ALA    HB2   13   6.615   2.617   9.359 -1.4127  2.1960 -0.9456
    2ALA    HB3   14   6.604   2.705   9.224  0.1643  1.2363  1.7930
    2ALA      C   15   6.667   2.482   9.025 -0.0492 -0.2907 -0.1162
    2ALA      O   16   6.560   2.427   9.000 -0.1344 -0.0566  0.2033
    3ALA      N   17   6.757   2.513   8.932 -0.1574  0.2422 -0.6138
    3ALA      H   18   6.844   2.555   8.962 -0.8856  1.1915  0.2018
    3ALA     CA   19   6.744   2.496   8.788  0.4966 -0.0208 -0.4331
    3ALA     HA   20   6.692   2.402   8.769  2.5248 -1.1467 -0.7354
    3ALA     CB   21   6.666   2.617   8.730 -0.9623 -0.8201 -0.3093
    3ALA    HB1   22   6.566   2.620   8.774 -1.3277  0.8614 -1.1707
    3ALA    HB2   23   6.716   2.710   8.755 -3.7711  0.0496  2.9575
    3ALA    HB3   24   6.652   2.606   8.623  0.2702  1.7355 -0.7872
    3ALA      C   25   6.887   2.487   8.734 -0.1740 -0.2894  0.0207
    3ALA      O   26   6.987   2.507   8.808 -0.1689  0.2652  0.4828
    4ALA      N   27   6.899   2.458   8.603 -0.8827 -0.0543  0.5215
    4ALA      H   28   6.819   2.470   8.543 -0.9365 -3.3958 -0.2505
    4ALA     CA   29   7.024   2.434   8.528  0.0787 -0.4642  0.8693
    4ALA     HA   30   7.112   2.462   8.586 -0.4914  2.2301  0.5798
    4ALA     CB   31   7.046   2.284   8.497  0.1693 -0.4540 -0.6854
    4ALA    HB1   32   7.062   2.211   8.577  0.0284  0.3562  0.0969
    4ALA    HB2   33   6.966   2.263   8.426  0.6441  0.5964 -1.5442
    4ALA    HB3   34   7.141   2.270   8.446 -0.3278 -1.0572 -1.4689
    4ALA      C   35   7.038   2.524   8.401 -0.3404  0.2306  0.1033
    4ALA      O   36   6.942   2.533   8.322 -0.3282  0.0839 -0.6635
    5NME      N   37   7.167   2.563   8.370 -0.0278  0.2100 -0.4259
    5NME      H   38   7.241   2.536   8.433  0.6454  1.2641 -0.7325
    5NME    CH3   39   7.210   2.655   8.257 -0.2818  0.4003 -0.1062
    5NME   HH31   40   7.200   2.604   8.161  0.5071  0.3267 -0.1582
    5NME   HH32   41   7.143   2.741   8.267 -1.2944 -0.3988  0.1554
    5NME   HH33   42   7.313   2.682   8.279  0.0358 -1.3115  0.6415
  20.91516  20.91516  20.91516
