Protein
   42
    1ACE   HH31    1  12.629  18.112  11.319  0.9370 -0.0945  1.7167
    1ACE    CH3    2  12.621  18.220  11.327 -0.2961  0.0057 -0.1841
    1ACE   HH32    3  12.682  18.275  11.399 -2.5561  2.4601  0.0135
    1ACE   HH33    4  12.521  18.239  11.367  0.0058  0.3355  0.4252
    1ACE      C    5  12.618  18.291  11.189  0.2278 -0.7349  0.3282
    1ACE      O    6  12.528  18.366  11.154 -0.7543 -0.4579  0.0178
    2ALA      N    7  12.724  18.262  11.111  0.0791 -0.2390  0.1097
    2ALA      H    8  12.792  18.192  11.139 -1.7953 -1.9691  0.5700
    2ALA     CA    9  12.735  18.317  10.977 -0.3550 -0.1547 -0.0673
    2ALA     HA   10  12.680  18.410  10.966  0.0477  0.3503  1.6900
    2ALA     CB   11  12.892  18.347  10.948  0.5974  0.2364 -0.2168
    2ALA    HB1   12  12.900  18.391  10.849  1.0982 -1.7440 -1.1001
    2ALA    HB2   13  12.920  18.422  11.022  0.6963  0.1008 -0.1226
    2ALA    HB3   14  12.947  18.253  10.960  1.0389  0.6684  1.3170
    2ALA      C   15  12.685  18.207  10.874  0.2342 -0.2148 -0.4831
    2ALA      O   16  12.750  18.104  10.853  0.5553  0.4753 -0.1469
    3ALA      N   17  12.572  18.225  10.806 -0.6364  0.3963  0.2399
    3ALA      H   18  12.560  18.166  10.724 -3.1233  0.9267  0.1290
    3ALA     CA   19  12.465  18.318  10.821 -0.5096  0.6161  0.8413
    3ALA     HA   20  12.502  18.403  10.877  1.1191 -0.1739  1.0080
    3ALA     CB   21  12.436  18.357  10.677 -0.9609  0.0711  0.3074
    3ALA    HB1   22  12.417  18.272  10.611 -0.5025 -0.9220  1.4257
    3ALA    HB2   23  12.362  18.437  10.682 -1.7431 -0.6126 -0.0661
    3ALA    HB3   24  12.516  18.418  10.636 -0.3740 -0.3921  0.7341
    3ALA      C   25  12.341  18.257  10.888  0.0362  0.8177  0.1653
    3ALA      O   26  12.230  18.268  10.841  0.5674  0.5441 -0.2185
    4ALA      N   27  12.360  18.187  11.006  0.0655 -0.0295  0.0207
    4ALA      H   28  12.459  18.179  11.023  0.7693  0.5158 -3.2228
    4ALA     CA   29  12.274  18.091  11.072  0.1364  0.3969  0.1756
    4ALA     HA   30  12.189  18.068  11.008  1.1007 -0.2630 -0.9432
    4ALA     CB   31  12.355  17.956  11.065 -0.2746 -0.1186 -0.4345
    4ALA    HB1   32  12.446  17.973  11.124 -0.6893  2.1436 -0.3599
    4ALA    HB2   33  12.302  17.876  11.116  0.0440 -0.6704 -0.9494
    4ALA    HB3   34  12.382  17.930  10.962 -3.5989  3.7525 -2.5877
    4ALA      C   35  12.211  18.122  11.209 -1.0241 -0.5558 -0.4033
    4ALA      O   36  12.189  18.026  11.277 -0.1463  0.0594  0.6393
    5NME      N   37  12.202  18.244  11.256  0.1568  0.2129 -0.5853
    5NME      H   38  12.203  18.319  11.187  0.6556 -1.2657 -2.2583
    5NME    CH3   39  12.165  18.278  11.394 -0.8608  0.4613  0.1993
    5NME   HH31   40  12.199  18.376  11.429  2.5049 -0.0789 -1.1685
    5NME   HH32   41  12.056  18.277  11.403 -0.7726  0.1298  1.3528
    5NME   HH33   42  12.206  18.204  11.461 -0.2307 -0.0724 -0.7486
  20.91516  20.91516  20.91516
