Protein
   42
    1ACE   HH31    1  19.893  12.532  19.400 -1.3283  1.4746 -0.1215
    1ACE    CH3    2  19.985  12.590  19.405 -0.6120  0.4152 -0.7349
    1ACE   HH32    3  20.003  12.647  19.313 -1.8251  3.1097  0.6060
    1ACE   HH33    4  20.076  12.532  19.420 -1.3029 -0.5090 -0.0206
    1ACE      C    5  19.978  12.683  19.531  0.0170 -0.1674  0.5267
    1ACE      O    6  20.053  12.670  19.627  0.4364 -0.2891  0.3192
    2ALA      N    7  19.889  12.779  19.524  0.1477  0.0719 -0.1272
    2ALA      H    8  19.853  12.803  19.433 -0.3446 -0.1064  0.0094
    2ALA     CA    9  19.873  12.873  19.639  0.3512  0.1609 -0.6945
    2ALA     HA   10  19.975  12.881  19.677  0.0366 -0.7234  0.3893
    2ALA     CB   11  19.823  13.012  19.590 -0.3907  0.0668 -0.5089
    2ALA    HB1   12  19.895  13.061  19.524 -0.8042  2.0184  0.3978
    2ALA    HB2   13  19.728  13.012  19.537 -0.8566  2.7885  0.1634
    2ALA    HB3   14  19.820  13.077  19.678  2.3370 -2.2357  1.4683
    2ALA      C   15  19.794  12.813  19.755  0.4244 -0.5049 -0.1144
    2ALA      O   16  19.677  12.778  19.743 -0.1135  0.8350  0.2619
    3ALA      N   17  19.858  12.787  19.871 -0.0107 -0.4930 -0.2286
    3ALA      H   18  19.803  12.734  19.938 -0.3912 -0.7488 -0.7408
    3ALA     CA   19  20.004  12.786  19.914 -0.4844  0.2252  0.1587
    3ALA     HA   20  20.071  12.801  19.829 -1.7226 -1.3745 -1.1379
    3ALA     CB   21  20.032  12.896  20.009  0.3941  0.3190  0.5744
    3ALA    HB1   22  20.139  12.883  20.027  0.3719 -0.5306  0.1852
    3ALA    HB2   23  20.000  12.990  19.966 -2.2664 -0.4357  0.7779
    3ALA    HB3   24  19.976  12.870  20.098  0.8143 -1.3437  0.3952
    3ALA      C   25  20.032  12.649  19.980 -0.1409 -0.4152  0.0442
    3ALA      O   26  19.937  12.587  20.027 -0.4168 -0.2150  0.1261
    4ALA      N   27  20.155  12.597  19.966  0.0897 -0.5662 -0.0080
    4ALA      H   28  20.218  12.658  19.914  2.1590  0.7265  3.7296
    4ALA     CA   29  20.211  12.468  19.991 -0.0640  0.7572  0.3240
    4ALA     HA   30  20.254  12.469  20.092  0.7655  0.5352 -0.0215
    4ALA     CB   31  20.106  12.358  19.978 -0.4061 -0.1988 -0.2655
    4ALA    HB1   32  20.151  12.259  19.991  1.2544  0.7782  2.2153
    4ALA    HB2   33  20.033  12.366  20.059  0.7213  2.0170  0.5946
    4ALA    HB3   34  20.057  12.358  19.881  0.5312  0.7265 -0.7752
    4ALA      C   35  20.315  12.419  19.885 -0.8424  0.3322 -0.7621
    4ALA      O   36  20.404  12.341  19.924 -0.3214  0.0532  0.0259
    5NME      N   37  20.319  12.475  19.763  0.6406 -0.2829  0.7115
    5NME      H   38  20.242  12.536  19.742  0.2601 -1.6306 -2.3091
    5NME    CH3   39  20.419  12.452  19.665  0.6573 -0.1752  0.3291
    5NME   HH31   40  20.510  12.420  19.716  0.6876 -1.0011 -0.2088
    5NME   HH32   41  20.397  12.367  19.600  1.8937  0.3565 -0.8275
    5NME   HH33   42  20.435  12.549  19.619 -2.6693  1.0068  1.3397
  20.91516  20.91516  20.91516
