Protein
   32
    1ACE   HH31    1  12.628   9.977  13.875 -2.2431  0.5417  1.7720
    1ACE    CH3    2  12.680  10.023  13.959  0.3843  0.8622  0.0963
    1ACE   HH32    3  12.748  10.100  13.922  1.9091 -0.9881 -1.2158
    1ACE   HH33    4  12.731   9.946  14.017 -0.2600 -0.3135 -0.8327
    1ACE      C    5  12.578  10.080  14.049 -0.5279  0.1366  0.2276
    1ACE      O    6  12.595  10.193  14.092 -0.4789  0.1821  0.0455
    2ALA      N    7  12.473  10.003  14.082 -0.7212 -0.2203 -0.2540
    2ALA      H    8  12.481   9.902  14.076  1.5093 -0.2752  1.8498
    2ALA     CA    9  12.354  10.064  14.151  0.4333  1.1178 -0.9185
    2ALA     HA   10  12.316  10.155  14.104 -0.0989 -0.3537 -3.5212
    2ALA     CB   11  12.244   9.962  14.147 -0.2753  0.7791 -0.1580
    2ALA    HB1   12  12.261   9.867  14.198  0.1728  0.0926 -1.5623
    2ALA    HB2   13  12.156   9.999  14.200 -1.8412  0.4103 -2.3969
    2ALA    HB3   14  12.215   9.940  14.044 -1.8066  0.5205  0.2984
    2ALA      C   15  12.384  10.091  14.300  0.1252  0.3764 -0.6475
    2ALA      O   16  12.321  10.173  14.369 -0.0308 -0.2831  0.2418
    3ALA      N   17  12.490  10.030  14.345 -0.4760  0.0727 -0.9245
    3ALA      H   18  12.543   9.962  14.293 -0.7676  1.3918 -3.0743
    3ALA     CA   19  12.562  10.062  14.469 -0.2670  0.1362  0.1182
    3ALA     HA   20  12.547  10.168  14.487 -1.4438  0.1427 -0.7229
    3ALA     CB   21  12.499   9.970  14.577 -0.7630  0.4008 -0.0099
    3ALA    HB1   22  12.543   9.973  14.677  0.4253 -2.3810 -0.3549
    3ALA    HB2   23  12.391   9.981  14.582 -1.2076 -2.6144 -0.9366
    3ALA    HB3   24  12.517   9.868  14.544 -2.1402 -0.4926  1.8577
    3ALA      C   25  12.713  10.029  14.449 -0.6821  0.3573 -0.0768
    3ALA      O   26  12.753   9.972  14.346 -0.2314 -0.4184 -0.2960
    4NME      N   27  12.795  10.071  14.546 -0.1892 -0.1333  0.2446
    4NME      H   28  12.753  10.133  14.614 -1.0375 -1.5032  1.0015
    4NME    CH3   29  12.938  10.023  14.569  0.2705 -0.2318 -0.3025
    4NME   HH31   30  12.948  10.016  14.677 -0.4652  1.1806 -0.1155
    4NME   HH32   31  12.956   9.924  14.527 -0.5146 -1.3673  1.8492
    4NME   HH33   32  13.007  10.093  14.522  1.2823 -0.4262  0.8569
  20.99041  20.99041  20.99041
