Protein
   42
    1ACE   HH31    1   7.814  11.773  14.748  1.2862  1.0559  0.9929
    1ACE    CH3    2   7.843  11.680  14.797 -0.2497  0.2876  0.5144
    1ACE   HH32    3   7.787  11.663  14.889 -0.1110 -1.9088  0.2268
    1ACE   HH33    4   7.946  11.691  14.830 -0.4244  0.6055  0.9772
    1ACE      C    5   7.845  11.565  14.696  0.0051 -0.2185 -0.3445
    1ACE      O    6   7.879  11.587  14.581  0.0371 -0.2177  0.0868
    2ALA      N    7   7.800  11.447  14.739 -0.2243  0.1575  0.6626
    2ALA      H    8   7.776  11.435  14.836 -2.3593 -0.4025  0.0999
    2ALA     CA    9   7.789  11.320  14.648  0.1002 -0.3569  0.0954
    2ALA     HA   10   7.764  11.356  14.548  0.3019  1.3510  0.6311
    2ALA     CB   11   7.922  11.244  14.649  0.2599  0.2073  0.0772
    2ALA    HB1   12   7.947  11.205  14.748 -0.0049 -0.9191 -0.2834
    2ALA    HB2   13   7.904  11.151  14.594  0.2349 -0.6887  1.5465
    2ALA    HB3   14   7.995  11.309  14.600  0.1380 -0.1765 -0.6464
    2ALA      C   15   7.673  11.222  14.688 -0.3246 -0.0336 -0.0342
    2ALA      O   16   7.670  11.163  14.794 -0.1137  0.3191 -0.2013
    3ALA      N   17   7.562  11.212  14.615  0.5927 -0.4017  0.2148
    3ALA      H   18   7.484  11.162  14.656  0.5592 -0.7469 -0.2649
    3ALA     CA   19   7.545  11.270  14.481  0.4545 -0.1502  0.7067
    3ALA     HA   20   7.573  11.375  14.471 -2.0409  0.3693 -2.5183
    3ALA     CB   21   7.633  11.189  14.383 -0.1384  0.3865 -0.3750
    3ALA    HB1   22   7.633  11.219  14.278 -2.9539 -1.5495 -1.0436
    3ALA    HB2   23   7.733  11.197  14.425 -1.2872  1.5900  2.4545
    3ALA    HB3   24   7.615  11.082  14.382  1.5380  0.0965 -0.9001
    3ALA      C   25   7.392  11.274  14.440 -0.1584  0.0858 -0.2125
    3ALA      O   26   7.325  11.181  14.487  0.0282  0.4842 -0.5197
    4ALA      N   27   7.338  11.370  14.362  0.1593  0.1574 -0.5763
    4ALA      H   28   7.398  11.440  14.322  1.3174 -1.1516 -1.2034
    4ALA     CA   29   7.207  11.369  14.308  0.2603 -0.2893 -0.4718
    4ALA     HA   30   7.198  11.463  14.255 -0.4281  0.0577  0.2428
    4ALA     CB   31   7.185  11.257  14.201  0.5037 -0.1472  0.1222
    4ALA    HB1   32   7.202  11.162  14.252  0.3049 -0.3063 -0.1114
    4ALA    HB2   33   7.084  11.272  14.164  0.0443 -1.1363  0.9286
    4ALA    HB3   34   7.265  11.262  14.127  1.7815 -1.1855  1.3601
    4ALA      C   35   7.092  11.389  14.409 -0.1941  0.1982  0.6253
    4ALA      O   36   7.006  11.475  14.386  0.3594  0.2112  0.1479
    5NME      N   37   7.094  11.323  14.525 -0.2412  0.5465  0.2957
    5NME      H   38   7.169  11.255  14.532 -0.6875  0.0002 -0.1410
    5NME    CH3   39   6.995  11.324  14.623  0.0563  0.0616 -0.4215
    5NME   HH31   40   7.006  11.421  14.671  2.0325 -1.1500  1.8365
    5NME   HH32   41   6.891  11.316  14.593 -0.7331 -2.2573  2.4683
    5NME   HH33   42   7.023  11.246  14.694  3.4367  2.7792  1.6074
  20.91516  20.91516  20.91516
