Protein
   42
    1ACE   HH31    1   6.766   8.089   7.256 -0.5239  0.4710 -0.2643
    1ACE    CH3    2   6.729   8.055   7.352 -0.2144 -0.1187 -0.3534
    1ACE   HH32    3   6.692   7.953   7.344 -2.4605  0.7246 -1.5044
    1ACE   HH33    4   6.649   8.113   7.398  0.7582 -1.1634  2.9093
    1ACE      C    5   6.841   8.064   7.453 -0.4206  0.7470  0.1664
    1ACE      O    6   6.908   7.962   7.485 -0.1941  0.0337 -0.2028
    2ALA      N    7   6.868   8.183   7.504 -0.2788  0.0850  0.8210
    2ALA      H    8   6.803   8.250   7.466 -2.7422 -1.4357  2.1556
    2ALA     CA    9   6.951   8.218   7.611 -0.4404 -0.6353  0.4008
    2ALA     HA   10   7.048   8.168   7.611  1.1831  2.0611 -3.1118
    2ALA     CB   11   6.996   8.363   7.584  0.2773 -0.3883  0.0663
    2ALA    HB1   12   6.907   8.424   7.566  0.7549  0.2865 -0.0337
    2ALA    HB2   13   7.036   8.410   7.673 -0.3921  0.0405  0.1475
    2ALA    HB3   14   7.063   8.373   7.498  1.7205  0.7768  1.2717
    2ALA      C   15   6.861   8.205   7.741  0.3154  0.1192  0.8108
    2ALA      O   16   6.777   8.289   7.768 -0.1033  0.0968 -0.0464
    3ALA      N   17   6.874   8.098   7.825 -0.3119 -0.0766 -0.3329
    3ALA      H   18   6.835   8.105   7.918  2.0974  0.3522  0.7358
    3ALA     CA   19   6.958   7.983   7.804  0.0950 -0.4158 -0.1666
    3ALA     HA   20   7.013   7.987   7.710 -1.6959 -0.7696 -1.2825
    3ALA     CB   21   7.058   7.967   7.924  0.0560  0.5676 -0.5292
    3ALA    HB1   22   7.002   7.961   8.018 -1.3851  2.4431 -1.2119
    3ALA    HB2   23   7.116   7.876   7.910  1.6458  1.4077  0.2281
    3ALA    HB3   24   7.119   8.055   7.943 -0.8009  0.7199  1.8183
    3ALA      C   25   6.869   7.862   7.786  1.0272 -0.5756  0.1874
    3ALA      O   26   6.772   7.837   7.857  0.5179 -0.3040 -0.4057
    4ALA      N   27   6.902   7.780   7.686 -0.4526  0.8685  0.0002
    4ALA      H   28   6.981   7.804   7.628  0.7690 -1.5859  0.5672
    4ALA     CA   29   6.840   7.661   7.628 -0.1077  0.3414  0.2692
    4ALA     HA   30   6.888   7.634   7.534 -0.4638 -2.6297  0.8464
    4ALA     CB   31   6.849   7.544   7.722  0.0842 -0.1723  0.0631
    4ALA    HB1   32   6.818   7.450   7.677  1.3233 -0.8068  0.5026
    4ALA    HB2   33   6.955   7.528   7.742  0.6577 -0.0561 -2.4989
    4ALA    HB3   34   6.792   7.566   7.812 -1.2175  2.6800 -1.3050
    4ALA      C   35   6.695   7.673   7.582 -0.0400  0.1543  0.2318
    4ALA      O   36   6.649   7.583   7.511  0.0813 -0.0266  0.1783
    5NME      N   37   6.630   7.788   7.621 -0.0128 -0.1281  0.0349
    5NME      H   38   6.669   7.842   7.697  0.7456 -1.7215  0.8255
    5NME    CH3   39   6.494   7.820   7.577  0.2388 -0.4811  0.2158
    5NME   HH31   40   6.462   7.766   7.488 -0.6236 -0.4312  0.4902
    5NME   HH32   41   6.426   7.784   7.653  0.1868 -0.4365  0.1912
    5NME   HH33   42   6.480   7.926   7.558  0.4037 -0.1502  1.8204
  20.91516  20.91516  20.91516
