Protein
   32
    1ACE   HH31    1   8.357  14.149   8.422 -3.7643 -2.4722  1.7519
    1ACE    CH3    2   8.307  14.174   8.328  0.7746 -0.4610 -0.5200
    1ACE   HH32    3   8.363  14.170   8.235 -0.1846 -0.6624 -1.1147
    1ACE   HH33    4   8.254  14.269   8.335 -1.3313 -1.6895  1.8464
    1ACE      C    5   8.196  14.071   8.315 -0.6020  0.1792  0.3565
    1ACE      O    6   8.085  14.109   8.286 -0.1705  0.4563 -0.4580
    2ALA      N    7   8.237  13.944   8.304 -0.2657  0.5566 -0.6507
    2ALA      H    8   8.335  13.920   8.311 -0.7848 -1.3955  0.6498
    2ALA     CA    9   8.139  13.831   8.300 -0.2939 -0.2154 -0.3126
    2ALA     HA   10   8.041  13.874   8.322  1.0599  2.3695  1.1498
    2ALA     CB   11   8.148  13.769   8.156 -0.3988  0.1565  0.0578
    2ALA    HB1   12   8.247  13.724   8.148  0.6618  2.2530  0.7554
    2ALA    HB2   13   8.065  13.698   8.149  1.7178 -2.3608 -0.7932
    2ALA    HB3   14   8.139  13.844   8.078 -1.4671 -0.5030 -0.4757
    2ALA      C   15   8.170  13.731   8.410 -0.6915  0.1985 -0.4061
    2ALA      O   16   8.205  13.755   8.523  0.1158 -0.3250 -1.0046
    3ALA      N   17   8.135  13.606   8.375 -0.1011  0.6847 -0.3691
    3ALA      H   18   8.090  13.584   8.287 -1.1365  1.0266  0.0575
    3ALA     CA   19   8.133  13.492   8.475  0.5628  0.4568 -0.4405
    3ALA     HA   20   8.097  13.401   8.426  0.5665  0.7664 -1.0141
    3ALA     CB   21   8.274  13.462   8.525  0.1932 -0.0947 -0.6720
    3ALA    HB1   22   8.334  13.453   8.434 -0.6679 -1.1079 -1.1708
    3ALA    HB2   23   8.309  13.540   8.592  2.1506  1.1038 -2.9276
    3ALA    HB3   24   8.270  13.371   8.585  0.2230  1.7428  2.2935
    3ALA      C   25   8.036  13.499   8.597 -0.3047 -0.2928  0.5665
    3ALA      O   26   8.028  13.401   8.672 -0.5467  0.8379 -0.3328
    4NME      N   27   7.957  13.608   8.615 -0.3607 -0.2607  0.2539
    4NME      H   28   7.975  13.685   8.552  0.7993  0.1001  0.9990
    4NME    CH3   29   7.840  13.613   8.701  0.8460 -0.1279  0.0169
    4NME   HH31   30   7.881  13.574   8.794 -0.1514 -3.3457 -0.7697
    4NME   HH32   31   7.798  13.714   8.698  0.2680 -0.3892 -1.5567
    4NME   HH33   32   7.759  13.553   8.661 -1.2377  1.5921  1.4625
  20.99041  20.99041  20.99041
