Protein
   32
    1ACE   HH31    1  11.487  11.912  10.119  0.4091  0.0043 -0.7142
    1ACE    CH3    2  11.586  11.956  10.132  0.6629 -0.5748 -0.6568
    1ACE   HH32    3  11.600  11.945  10.239 -2.4277 -1.4714 -0.2339
    1ACE   HH33    4  11.589  12.062  10.108 -1.5912 -0.2060  0.4505
    1ACE      C    5  11.698  11.883  10.058 -0.6330  0.1776  0.4390
    1ACE      O    6  11.774  11.952   9.987 -0.2992 -0.6236 -0.0653
    2ALA      N    7  11.698  11.748  10.063  0.0338  0.1479  0.2686
    2ALA      H    8  11.627  11.700  10.116 -2.5226  2.4096 -0.8521
    2ALA     CA    9  11.774  11.668   9.972  0.3212 -0.9098  0.9420
    2ALA     HA   10  11.880  11.693   9.986  0.7889 -1.3710 -1.3870
    2ALA     CB   11  11.747  11.515   9.999 -0.3443  0.0920  0.3616
    2ALA    HB1   12  11.755  11.455   9.908 -0.6483 -0.0862  0.4534
    2ALA    HB2   13  11.816  11.471  10.072 -0.1962 -0.6831 -0.2330
    2ALA    HB3   14  11.647  11.500  10.039 -0.0947 -0.3017  0.8611
    2ALA      C   15  11.740  11.706   9.823  0.9889  0.1474 -0.5920
    2ALA      O   16  11.619  11.711   9.792  0.0756 -0.4665 -0.1667
    3ALA      N   17  11.844  11.736   9.743  0.1573 -0.0138  0.1900
    3ALA      H   18  11.936  11.715   9.781  0.1771  0.5900  0.4748
    3ALA     CA   19  11.854  11.827   9.622 -0.0502 -0.0604 -0.1326
    3ALA     HA   20  11.905  11.775   9.541  1.0687 -0.0167  0.5010
    3ALA     CB   21  11.719  11.867   9.560 -0.6582  0.2513  0.2166
    3ALA    HB1   22  11.727  11.930   9.472 -1.6330  0.7722  0.4784
    3ALA    HB2   23  11.663  11.776   9.540  0.8478 -0.7031  0.2568
    3ALA    HB3   24  11.663  11.927   9.632 -1.5103  0.5222 -0.6383
    3ALA      C   25  11.954  11.940   9.660 -0.1565 -0.1642  1.0355
    3ALA      O   26  12.060  11.936   9.605 -0.2917  0.1536  0.7407
    4NME      N   27  11.934  12.028   9.753  0.0456  0.3988 -0.0705
    4NME      H   28  11.861  12.007   9.820  0.7159 -1.7362  0.0709
    4NME    CH3   29  12.019  12.142   9.795  0.8569  0.3041 -0.2775
    4NME   HH31   30  12.036  12.198   9.703  0.6208 -0.5074 -0.8278
    4NME   HH32   31  11.965  12.196   9.871  0.2533 -0.0216 -0.4686
    4NME   HH33   32  12.111  12.108   9.844  0.4724 -1.8920 -0.9958
  20.99041  20.99041  20.99041
