Protein
   32
    1ACE   HH31    1   7.736  10.128  14.275  0.3449 -1.4968 -2.2217
    1ACE    CH3    2   7.785  10.083  14.361 -0.8293  0.0503 -0.6797
    1ACE   HH32    3   7.713  10.025  14.419  0.5877 -0.6834  0.4224
    1ACE   HH33    4   7.838  10.159  14.418 -1.0529  1.0272 -1.7360
    1ACE      C    5   7.887   9.984  14.309  0.0357 -0.3174 -0.5172
    1ACE      O    6   7.878   9.939  14.197  0.7385 -0.2007  0.7108
    2ALA      N    7   7.975   9.943  14.397 -0.6730  0.9464 -0.5857
    2ALA      H    8   7.983   9.987  14.487 -0.0499 -2.4572  1.1447
    2ALA     CA    9   8.089   9.867  14.360  0.1550  0.2353 -0.3345
    2ALA     HA   10   8.122   9.906  14.264 -1.6842  0.9648 -0.7023
    2ALA     CB   11   8.203   9.900  14.457 -0.5718  0.2582  0.1522
    2ALA    HB1   12   8.186   9.859  14.557 -1.1972  3.8644  1.7189
    2ALA    HB2   13   8.297   9.856  14.422 -1.2446  0.6326 -2.3018
    2ALA    HB3   14   8.221  10.007  14.469 -1.5446  0.4333  0.0812
    2ALA      C   15   8.067   9.717  14.340 -0.1801 -0.0328 -0.4464
    2ALA      O   16   8.140   9.636  14.400 -0.1189  0.0718  0.3806
    3ALA      N   17   7.969   9.680  14.257 -0.2496 -0.2287 -0.0805
    3ALA      H   18   7.914   9.752  14.212  1.2806  1.2274  0.2849
    3ALA     CA   19   7.944   9.544  14.221  1.1564 -0.1890 -0.3034
    3ALA     HA   20   7.929   9.486  14.312 -0.9264  1.0401  0.1871
    3ALA     CB   21   7.808   9.536  14.159  0.1376  0.6445 -0.1723
    3ALA    HB1   22   7.787   9.433  14.133 -0.8121  0.3798  1.4901
    3ALA    HB2   23   7.734   9.571  14.231  1.3325  2.4942  0.2148
    3ALA    HB3   24   7.806   9.601  14.071 -0.2102  0.8094 -0.0464
    3ALA      C   25   8.046   9.466  14.136 -0.6312 -0.3625  0.0569
    3ALA      O   26   8.012   9.394  14.040 -0.7491 -0.1049 -0.5290
    4NME      N   27   8.173   9.483  14.170 -0.1081 -0.0620  0.1607
    4NME      H   28   8.193   9.546  14.246 -0.0500  1.7353 -1.2760
    4NME    CH3   29   8.292   9.415  14.116 -1.2556 -0.2406  0.1320
    4NME   HH31   30   8.325   9.329  14.173  0.1313  0.6272  0.7005
    4NME   HH32   31   8.276   9.399  14.010  0.2649  0.7438 -0.2772
    4NME   HH33   32   8.368   9.492  14.125 -1.1187 -0.5104  1.3482
  20.99041  20.99041  20.99041
