Protein
   42
    1ACE   HH31    1   7.756  15.802   8.637  0.9790  1.7382  0.4560
    1ACE    CH3    2   7.854  15.810   8.590  0.8269 -0.0118 -0.2638
    1ACE   HH32    3   7.858  15.915   8.562 -0.8673 -0.0744 -0.8583
    1ACE   HH33    4   7.875  15.749   8.501 -2.2805 -3.4106  1.0631
    1ACE      C    5   7.957  15.785   8.693 -0.0160  0.0880  0.5925
    1ACE      O    6   7.954  15.685   8.762  1.1557  0.1580 -0.0304
    2ALA      N    7   8.046  15.883   8.723  0.2747  0.2798 -0.3957
    2ALA      H    8   8.035  15.967   8.668 -1.5494  0.9103  0.8716
    2ALA     CA    9   8.135  15.886   8.838 -0.0793 -0.2107 -0.0696
    2ALA     HA   10   8.174  15.785   8.855  0.4898  0.1239  0.6932
    2ALA     CB   11   8.256  15.977   8.811  0.0375 -0.3485 -0.3887
    2ALA    HB1   12   8.318  15.990   8.900  0.3405  1.4019 -0.8069
    2ALA    HB2   13   8.314  15.936   8.728  0.2054  1.1750 -1.0678
    2ALA    HB3   14   8.227  16.078   8.782 -0.5359 -0.0557  1.0733
    2ALA      C   15   8.056  15.932   8.966  0.5296 -0.0498  0.0987
    2ALA      O   16   7.973  16.024   8.962  0.1054  0.0911 -0.2712
    3ALA      N   17   8.096  15.876   9.083 -0.1210  0.0271 -0.4230
    3ALA      H   18   8.051  15.915   9.164  0.4753  0.4965 -0.3144
    3ALA     CA   19   8.192  15.771   9.116  0.2163  1.2383 -0.2142
    3ALA     HA   20   8.277  15.762   9.049  1.3160 -0.5681  1.3508
    3ALA     CB   21   8.258  15.804   9.257 -1.3589 -0.5691 -0.4516
    3ALA    HB1   22   8.328  15.724   9.280 -2.7903 -1.6920  0.1967
    3ALA    HB2   23   8.309  15.900   9.250  0.9437 -1.6483  0.5118
    3ALA    HB3   24   8.176  15.805   9.328 -2.1985 -1.7622 -1.3781
    3ALA      C   25   8.125  15.628   9.125 -0.7992  0.3151  0.3760
    3ALA      O   26   8.201  15.528   9.127  0.3030 -0.5228  0.5955
    4ALA      N   27   7.993  15.616   9.121  0.0821  0.1387  0.6015
    4ALA      H   28   7.937  15.700   9.124 -1.9723 -1.0976 -0.7531
    4ALA     CA   29   7.925  15.486   9.102  0.0755 -0.6080  0.1443
    4ALA     HA   30   7.941  15.430   9.194  1.7400 -2.0891 -0.9945
    4ALA     CB   31   7.779  15.514   9.073  0.2235  0.0383 -0.3136
    4ALA    HB1   32   7.746  15.586   9.147 -0.6559 -0.7067  0.0413
    4ALA    HB2   33   7.775  15.557   8.972 -0.8276  1.2764  0.2304
    4ALA    HB3   34   7.707  15.432   9.068  0.2523 -0.1687  2.0279
    4ALA      C   35   7.985  15.392   8.989  0.5506  0.0179  0.4357
    4ALA      O   36   7.988  15.269   8.995  0.6243  0.0587 -0.0918
    5NME      N   37   8.018  15.451   8.882 -0.7547  0.1904  1.0399
    5NME      H   38   7.998  15.549   8.872  0.8411  0.3015 -3.4480
    5NME    CH3   39   8.079  15.385   8.760  0.2456  0.1654  0.1747
    5NME   HH31   40   8.148  15.313   8.805 -0.6277  0.5767  2.2608
    5NME   HH32   41   8.004  15.331   8.702 -1.2739 -0.5068  2.5862
    5NME   HH33   42   8.132  15.462   8.705  1.6104 -1.6163 -1.1670
  20.91516  20.91516  20.91516
