Protein
   32
    1ACE   HH31    1   8.860   9.951  13.342  0.1568 -0.9860  0.7509
    1ACE    CH3    2   8.809   9.974  13.435 -0.2067 -0.5982  0.4579
    1ACE   HH32    3   8.707  10.002  13.409 -0.4842 -2.2084 -0.4359
    1ACE   HH33    4   8.869  10.053  13.481  0.8703 -0.9323 -0.3267
    1ACE      C    5   8.814   9.858  13.529 -0.7098 -0.2399  0.4089
    1ACE      O    6   8.713   9.792  13.544 -0.1827 -0.3960 -0.6151
    2ALA      N    7   8.930   9.846  13.589 -0.0746 -0.3998 -0.2806
    2ALA      H    8   8.989   9.926  13.572  0.2379 -0.0528  2.1197
    2ALA     CA    9   8.999   9.731  13.647  0.1700  0.1315 -0.3597
    2ALA     HA   10   9.104   9.760  13.652  0.2446 -0.0771 -0.6959
    2ALA     CB   11   8.960   9.728  13.794  0.8126 -0.3276  1.0373
    2ALA    HB1   12   8.977   9.827  13.838 -0.4101  0.1648  0.4498
    2ALA    HB2   13   8.852   9.717  13.804  0.5779  1.1024  0.3540
    2ALA    HB3   14   9.017   9.653  13.849  2.6254  0.0754 -0.2072
    2ALA      C   15   8.986   9.588  13.580  0.2850 -0.3057  0.6262
    2ALA      O   16   9.077   9.506  13.573  0.4532  0.4121 -0.9786
    3ALA      N   17   8.861   9.561  13.524 -0.6879 -0.2793 -0.2562
    3ALA      H   18   8.797   9.638  13.522  0.8853  1.0828 -1.7800
    3ALA     CA   19   8.834   9.448  13.433 -0.0252 -0.0592  0.3391
    3ALA     HA   20   8.929   9.417  13.390  0.1436  1.2428 -0.2465
    3ALA     CB   21   8.780   9.341  13.528  0.0368 -0.2073  0.7607
    3ALA    HB1   22   8.677   9.360  13.558 -0.4080  0.6666 -1.2201
    3ALA    HB2   23   8.790   9.243  13.480 -2.9661 -0.0495 -0.4160
    3ALA    HB3   24   8.833   9.343  13.624 -1.0911 -1.3367  1.4458
    3ALA      C   25   8.745   9.489  13.308  0.1601  1.1664  0.2294
    3ALA      O   26   8.784   9.456  13.195 -0.1127  0.2751  0.3837
    4NME      N   27   8.636   9.567  13.334  0.0946  0.1458  0.2000
    4NME      H   28   8.624   9.588  13.432 -2.1621  2.0464 -0.3960
    4NME    CH3   29   8.524   9.581  13.238 -0.1834  0.6500 -0.6717
    4NME   HH31   30   8.527   9.501  13.163  2.3507  0.5314 -0.5378
    4NME   HH32   31   8.427   9.576  13.288 -0.5091  1.7591 -1.1640
    4NME   HH33   32   8.529   9.671  13.176  0.0621 -0.0099 -1.6447
  20.99041  20.99041  20.99041
