Protein
   42
    1ACE   HH31    1  11.126  11.758  16.282 -1.4566 -1.6765 -1.1748
    1ACE    CH3    2  11.084  11.841  16.225 -0.2425  0.2652  0.6137
    1ACE   HH32    3  11.033  11.808  16.135  1.2011  0.1770 -0.1835
    1ACE   HH33    4  11.171  11.905  16.211  0.2563 -0.7797 -1.4409
    1ACE      C    5  10.977  11.909  16.297  0.2706  0.4190  0.0474
    1ACE      O    6  10.950  11.875  16.415 -0.4192 -0.1452 -0.3736
    2ALA      N    7  10.901  11.985  16.223  0.2777  0.1005 -0.2978
    2ALA      H    8  10.939  12.027  16.139 -0.4853  0.7122 -0.3527
    2ALA     CA    9  10.781  12.050  16.279 -1.1424 -1.1010 -0.7349
    2ALA     HA   10  10.816  12.077  16.379  1.0718 -1.0152 -1.4839
    2ALA     CB   11  10.751  12.184  16.213  0.4002  0.2175 -0.1534
    2ALA    HB1   12  10.677  12.239  16.272  2.4459  1.5160  1.3231
    2ALA    HB2   13  10.842  12.243  16.207 -0.3810  1.4081 -0.8000
    2ALA    HB3   14  10.705  12.172  16.115 -0.2180  1.7580 -0.0729
    2ALA      C   15  10.660  11.957  16.298 -0.4691  0.6669 -0.9818
    2ALA      O   16  10.559  11.964  16.230  0.0915  0.4630 -0.9400
    3ALA      N   17  10.671  11.867  16.390 -0.7266 -0.1152  0.0546
    3ALA      H   18  10.760  11.858  16.436 -0.0074  0.2099 -1.2275
    3ALA     CA   19  10.558  11.784  16.452  0.6957  0.8770  0.6477
    3ALA     HA   20  10.467  11.839  16.429 -0.2362 -0.6164  0.6957
    3ALA     CB   21  10.548  11.646  16.387  0.6367  1.0966 -0.1514
    3ALA    HB1   22  10.644  11.596  16.380  0.1551  0.1330 -0.0196
    3ALA    HB2   23  10.468  11.586  16.430  1.4685  0.5265  0.6298
    3ALA    HB3   24  10.506  11.666  16.288 -1.0028 -0.1365  0.2553
    3ALA      C   25  10.562  11.789  16.606 -0.3518  0.3377 -0.2072
    3ALA      O   26  10.529  11.886  16.668  0.2059  0.0811  0.1066
    4ALA      N   27  10.617  11.688  16.672 -0.6625  0.1386 -0.0758
    4ALA      H   28  10.648  11.610  16.615  1.2147  1.1271 -0.5206
    4ALA     CA   29  10.621  11.656  16.820 -0.1214 -0.0223  0.6386
    4ALA     HA   30  10.655  11.553  16.827 -2.2199 -0.9420 -1.0515
    4ALA     CB   31  10.724  11.745  16.883  0.0737 -0.1875 -0.5956
    4ALA    HB1   32  10.683  11.846  16.873 -1.3679 -0.6871  0.0486
    4ALA    HB2   33  10.739  11.714  16.987 -0.2545 -2.7971 -1.2673
    4ALA    HB3   34  10.820  11.742  16.831  0.2753  0.0558 -0.2431
    4ALA      C   35  10.486  11.653  16.891 -0.0457  0.0748  0.1075
    4ALA      O   36  10.480  11.573  16.982 -0.2158  0.1240  0.5994
    5NME      N   37  10.383  11.729  16.849 -0.8669  0.1150 -0.6001
    5NME      H   38  10.402  11.803  16.782  0.0595  2.2270  1.8593
    5NME    CH3   39  10.258  11.744  16.916 -0.6093 -0.0274 -0.2538
    5NME   HH31   40  10.184  11.664  16.917  1.1405 -1.7172  0.6873
    5NME   HH32   41  10.274  11.774  17.020  1.3834 -1.8520  0.0650
    5NME   HH33   42  10.212  11.834  16.875 -0.4519 -0.1922 -0.7936
  20.91516  20.91516  20.91516
