Protein
   32
    1ACE   HH31    1  10.528  11.643  10.324  1.5865 -0.0926 -0.9203
    1ACE    CH3    2  10.451  11.571  10.297  0.4452  0.8178 -0.1957
    1ACE   HH32    3  10.357  11.625  10.287 -1.0035 -1.1088  1.7514
    1ACE   HH33    4  10.444  11.501  10.381  1.8048 -0.3300 -1.0073
    1ACE      C    5  10.486  11.489  10.179  0.4264  0.3119  0.0821
    1ACE      O    6  10.468  11.368  10.180  0.5676 -0.1960  0.0961
    2ALA      N    7  10.540  11.553  10.073 -0.4885  0.1334 -0.2863
    2ALA      H    8  10.563  11.650  10.081  0.8717 -0.2802  1.2399
    2ALA     CA    9  10.545  11.497   9.937 -0.3473 -0.0328  0.1048
    2ALA     HA   10  10.571  11.578   9.870 -1.1880  0.0796 -0.0856
    2ALA     CB   11  10.661  11.387   9.942  0.2475 -0.4060 -0.6675
    2ALA    HB1   12  10.678  11.364   9.836 -2.2886 -1.0840 -0.9979
    2ALA    HB2   13  10.755  11.420   9.986 -0.1423  0.6887 -0.6377
    2ALA    HB3   14  10.636  11.301  10.005  1.5509 -0.2648  0.0641
    2ALA      C   15  10.405  11.467   9.894  0.3172 -0.1106  0.2571
    2ALA      O   16  10.315  11.549   9.907 -0.1079  0.4776  0.1370
    3ALA      N   17  10.387  11.351   9.831  0.2011  0.5276 -0.7158
    3ALA      H   18  10.470  11.299   9.805 -1.2431 -1.2661 -2.0009
    3ALA     CA   19  10.259  11.291   9.801 -0.2676  0.3663  0.1831
    3ALA     HA   20  10.188  11.352   9.857 -0.1478  2.2509 -1.5904
    3ALA     CB   21  10.255  11.305   9.650  0.2070  0.0808 -0.0433
    3ALA    HB1   22  10.262  11.408   9.616  0.9790 -1.4811 -5.3165
    3ALA    HB2   23  10.341  11.248   9.614  2.3819  1.3488  2.7554
    3ALA    HB3   24  10.161  11.258   9.619  0.6791  0.2839 -1.9083
    3ALA      C   25  10.264  11.144   9.856 -0.2961 -0.0479  0.2422
    3ALA      O   26  10.235  11.055   9.782  0.4476 -1.1307 -0.4107
    4NME      N   27  10.311  11.127   9.980 -0.1835  0.4761  0.8740
    4NME      H   28  10.324  11.210  10.036  0.9543 -1.1736  3.2271
    4NME    CH3   29  10.373  10.993  10.016 -0.0525 -0.7618  0.0874
    4NME   HH31   30  10.416  10.993  10.116 -0.4386 -1.0863  0.2613
    4NME   HH32   31  10.293  10.919  10.012  0.4367 -1.3214  0.4098
    4NME   HH33   32  10.450  10.970   9.942  0.3353  0.3700  0.1268
  20.99041  20.99041  20.99041
