Title
  129
    1AIB    CAY    1  20.698  19.284  22.004 -0.2042 -0.1224  1.0323
    1AIB    HY1    2  20.626  19.276  22.088 -0.4750 -0.2322  0.7974
    1AIB    HY2    3  20.767  19.368  22.027  1.1597 -0.2978 -1.9614
    1AIB    HY3    4  20.746  19.185  21.989 -3.5178 -1.6116 -0.6927
    1AIB     CY    5  20.626  19.317  21.880 -0.2806  0.4993  0.2508
    1AIB     OY    6  20.625  19.437  21.849 -0.1766  0.2191 -0.3444
    1AIB      N    7  20.575  19.221  21.798 -0.1600 -0.2685 -0.0222
    1AIB     HN    8  20.567  19.127  21.831 -0.1085  0.0211  0.8612
    1AIB     CA    9  20.512  19.250  21.674  0.2333 -0.1410 -0.2563
    1AIB    CB1   10  20.382  19.321  21.701 -0.1973  0.5209 -0.2629
    1AIB   HB11   11  20.316  19.249  21.753  2.2980 -1.0758  0.8538
    1AIB   HB12   12  20.325  19.351  21.610 -0.7843  1.4033  0.3741
    1AIB   HB13   13  20.393  19.417  21.757  1.2453 -0.0200  0.4104
    1AIB    CB2   14  20.480  19.119  21.607  0.6750 -0.0252  0.2653
    1AIB   HB21   15  20.425  19.046  21.670  0.1873 -0.3732 -0.5283
    1AIB   HB22   16  20.575  19.067  21.585  0.3407 -0.0443 -1.2637
    1AIB   HB23   17  20.418  19.140  21.517  0.2046  0.4731  0.6952
    1AIB      C   18  20.597  19.338  21.575  0.1243  0.5799 -0.7410
    1AIB      O   19  20.723  19.325  21.571 -0.3917 -0.0306 -0.4453
    2AIB      N   20  20.531  19.423  21.500  0.6862 -0.2027  0.3134
    2AIB     HN   21  20.435  19.433  21.526  0.1526 -1.6820 -0.9185
    2AIB     CA   22  20.576  19.490  21.380  0.6403  0.3851  0.7593
    2AIB    CB1   23  20.474  19.593  21.340  0.3014 -0.2707 -0.0441
    2AIB   HB11   24  20.513  19.672  21.272 -0.6830 -0.8730 -1.3490
    2AIB   HB12   25  20.453  19.645  21.436  1.9830 -0.5476  0.5009
    2AIB   HB13   26  20.376  19.554  21.303 -0.3497 -0.8664  2.1483
    2AIB    CB2   27  20.581  19.385  21.268 -0.4704 -0.6335  0.1621
    2AIB   HB21   28  20.474  19.354  21.264 -1.0103  0.8730  1.6893
    2AIB   HB22   29  20.650  19.302  21.294  0.8765  0.3088 -0.2221
    2AIB   HB23   30  20.612  19.429  21.170 -0.2345 -2.2495 -0.5125
    2AIB      C   31  20.713  19.555  21.399 -0.7491 -0.4057  0.3114
    2AIB      O   32  20.805  19.544  21.311  0.1746 -0.6703 -0.4522
    3AIB      N   33  20.719  19.638  21.507 -0.4481 -0.4017  0.1840
    3AIB     HN   34  20.641  19.645  21.569  0.0071 -2.2878  1.0622
    3AIB     CA   35  20.834  19.721  21.548  0.5203  0.1423 -0.0253
    3AIB    CB1   36  20.804  19.788  21.682 -0.4647 -0.0877  0.2507
    3AIB   HB11   37  20.717  19.856  21.672 -0.1064  0.4196  0.6489
    3AIB   HB12   38  20.898  19.836  21.715 -0.3526 -0.1976  0.1053
    3AIB   HB13   39  20.778  19.714  21.761 -1.3334 -0.0211  0.0510
    3AIB    CB2   40  20.860  19.829  21.440 -0.3118  0.0762 -0.0588
    3AIB   HB21   41  20.775  19.896  21.415  0.3315  1.1415  0.4963
    3AIB   HB22   42  20.911  19.792  21.349  0.2930  0.4280  0.1290
    3AIB   HB23   43  20.938  19.894  21.486 -1.6475  1.4843  0.2817
    3AIB      C   44  20.959  19.626  21.568 -0.5627  0.1599  0.6385
    3AIB      O   45  21.064  19.642  21.508 -0.0010 -0.6276 -0.1239
    4AIB      N   46  20.943  19.522  21.652 -0.0856  0.1006  0.0467
    4AIB     HN   47  20.851  19.495  21.678  0.3095 -0.2395  1.1290
    4AIB     CA   48  21.047  19.435  21.701 -0.4404 -0.2885  0.0281
    4AIB    CB1   49  20.979  19.339  21.788  0.1048 -0.0669 -0.2632
    4AIB   HB11   50  20.923  19.374  21.877 -0.5946 -3.2790  0.7130
    4AIB   HB12   51  21.050  19.268  21.835  0.6880  0.4696 -0.3287
    4AIB   HB13   52  20.911  19.278  21.724  1.7273 -0.6465 -1.5184
    4AIB    CB2   53  21.166  19.512  21.776  0.2159  0.1185  1.1372
    4AIB   HB21   54  21.204  19.600  21.720  0.8339 -1.0773 -0.4112
    4AIB   HB22   55  21.258  19.452  21.795 -0.7680 -1.9190 -0.1801
    4AIB   HB23   56  21.127  19.549  21.873 -0.7265  2.5104 -0.0608
    4AIB      C   57  21.118  19.361  21.583 -0.2129  0.2349 -0.5678
    4AIB      O   58  21.238  19.345  21.580  0.0022 -0.5793  0.0914
    5AIB      N   59  21.037  19.312  21.494  0.4872  0.1130  0.9403
    5AIB     HN   60  20.939  19.327  21.505  0.5815  0.8946  0.7731
    5AIB     CA   61  21.063  19.247  21.369 -0.2969  0.3355  0.0689
    5AIB    CB1   62  20.930  19.217  21.302  0.0642  0.0394 -0.2383
    5AIB   HB11   63  20.864  19.142  21.351  1.9273 -0.8162  1.0763
    5AIB   HB12   64  20.970  19.165  21.213 -1.5208  1.0491 -1.5990
    5AIB   HB13   65  20.880  19.314  21.278 -1.2164 -0.4635  0.2833
    5AIB    CB2   66  21.127  19.109  21.399 -0.3705  0.0027  0.5354
    5AIB   HB21   67  21.123  19.047  21.308 -1.5585  1.6784 -0.6276
    5AIB   HB22   68  21.055  19.059  21.467  1.0213 -1.2571  1.1335
    5AIB   HB23   69  21.228  19.103  21.445  0.1290  1.2788 -0.3144
    5AIB      C   70  21.140  19.339  21.272 -0.6365  0.2185 -0.3486
    5AIB      O   71  21.254  19.305  21.233 -0.2182  0.0723 -0.0103
    6AIB      N   72  21.086  19.448  21.225 -0.0996 -0.8020 -0.1958
    6AIB     HN   73  21.002  19.481  21.269 -0.7419 -1.9411 -0.5414
    6AIB     CA   74  21.135  19.531  21.112  0.4980  0.1229 -0.8550
    6AIB    CB1   75  21.027  19.646  21.092  0.5443  0.0633 -0.2960
    6AIB   HB11   76  21.036  19.710  21.182  3.7766 -4.1576  2.8039
    6AIB   HB12   77  20.926  19.602  21.079 -0.5035  2.6194 -1.3928
    6AIB   HB13   78  21.049  19.712  21.006  1.2554 -0.1574 -0.2931
    6AIB    CB2   79  21.140  19.444  20.982  0.6521  0.3831  0.2662
    6AIB   HB21   80  21.219  19.365  20.988  1.6537  1.3935  0.6751
    6AIB   HB22   81  21.158  19.507  20.892  0.0025  0.1652 -0.0270
    6AIB   HB23   82  21.041  19.397  20.967  0.7551 -0.1656  1.2107
    6AIB      C   83  21.270  19.598  21.147 -0.9410  0.4496  0.3540
    6AIB      O   84  21.359  19.610  21.060  0.2466 -0.5255 -0.2023
    7AIB      N   85  21.288  19.635  21.276  0.3352  0.3939 -0.0674
    7AIB     HN   86  21.205  19.608  21.324 -2.0923  1.8943 -3.1053
    7AIB     CA   87  21.410  19.687  21.333  0.2595  0.0716 -0.4600
    7AIB    CB1   88  21.407  19.680  21.485 -0.2904  0.9916 -0.1093
    7AIB   HB11   89  21.378  19.575  21.502  0.8102  0.6142 -0.4899
    7AIB   HB12   90  21.344  19.757  21.534  1.8512  1.9321  1.2951
    7AIB   HB13   91  21.506  19.691  21.534 -0.1847 -0.8521  0.1640
    7AIB    CB2   92  21.423  19.840  21.302  0.4387 -0.2629  0.0546
    7AIB   HB21   93  21.522  19.883  21.329  1.3154  0.0418 -3.1658
    7AIB   HB22   94  21.331  19.890  21.340 -1.1709 -1.0054 -2.5529
    7AIB   HB23   95  21.409  19.862  21.194  0.2795 -0.0029  0.1244
    7AIB      C   96  21.541  19.608  21.287 -0.0313  0.2100  0.2516
    7AIB      O   97  21.639  19.660  21.238  0.1935 -0.1285  0.1110
    8AIB      N   98  21.540  19.480  21.309 -0.7958 -0.4637  0.2814
    8AIB     HN   99  21.457  19.441  21.348 -2.4219  0.4125 -2.1423
    8AIB     CA  100  21.645  19.387  21.267 -0.0647 -0.1854 -0.3929
    8AIB    CB1  101  21.598  19.243  21.287  0.3747 -0.0400  0.1658
    8AIB   HB11  102  21.674  19.169  21.253  0.4384 -0.3111  0.9071
    8AIB   HB12  103  21.500  19.211  21.246  0.9830 -0.7421 -0.7837
    8AIB   HB13  104  21.595  19.223  21.396 -2.0039  0.8821  0.3092
    8AIB    CB2  105  21.773  19.417  21.355 -0.3777 -0.7958 -0.2738
    8AIB   HB21  106  21.831  19.507  21.322  2.3930 -3.0937 -2.1416
    8AIB   HB22  107  21.838  19.328  21.357  0.9361  0.1281 -0.1527
    8AIB   HB23  108  21.744  19.427  21.462  0.4549 -2.8481  0.1598
    8AIB      C  109  21.678  19.397  21.117  0.1858  0.4599 -0.0811
    8AIB      O  110  21.792  19.392  21.079 -0.1685 -0.3095  0.2167
    9AIB      N  111  21.575  19.407  21.026  0.1504 -0.0919  0.3288
    9AIB     HN  112  21.481  19.425  21.054  0.2056 -0.6011  0.8578
    9AIB     CA  113  21.606  19.418  20.884  0.2074  0.8594  0.2550
    9AIB    CB1  114  21.474  19.413  20.797  0.2275  0.5062  0.2811
    9AIB   HB11  115  21.505  19.428  20.692 -0.9856  0.8193 -0.0517
    9AIB   HB12  116  21.404  19.498  20.813 -2.7436 -1.6492 -0.5143
    9AIB   HB13  117  21.430  19.311  20.803 -0.3674  0.7543  0.2766
    9AIB    CB2  118  21.694  19.296  20.830 -0.5034 -0.4404 -0.3114
    9AIB   HB21  119  21.786  19.286  20.891 -1.7743  1.9122  2.2775
    9AIB   HB22  120  21.721  19.320  20.725  0.9947  1.8828  0.5249
    9AIB   HB23  121  21.642  19.198  20.836  1.7091 -1.6406  0.8263
    9AIB      C  122  21.675  19.552  20.850 -0.2919  0.2919 -0.3260
    9AIB      O  123  21.745  19.568  20.750 -0.2627 -0.1031  0.6937
    9AIB     NT  124  21.651  19.655  20.935 -0.4801  0.5993  0.8000
    9AIB    HNT  125  21.595  19.645  21.017 -0.0849  0.0204  1.0100
    9AIB    CAT  126  21.694  19.784  20.924 -0.3977 -0.1590  0.1038
    9AIB    HT1  127  21.728  19.817  21.025  2.2932 -0.2994 -0.6942
    9AIB    HT2  128  21.599  19.839  20.908 -3.1958 -4.9388 -1.7417
    9AIB    HT3  129  21.774  19.801  20.849 -1.2146  1.1180 -0.5131
  42.09246  42.09246  42.09246
