Protein
   42
    1ACE   HH31    1  12.451   9.824  10.814  2.0546  1.7594  2.0174
    1ACE    CH3    2  12.529   9.764  10.769 -0.1462  0.4193 -0.2519
    1ACE   HH32    3  12.526   9.663  10.810 -2.3187  0.7670  0.5671
    1ACE   HH33    4  12.632   9.801  10.773  0.1797 -0.2161 -1.6876
    1ACE      C    5  12.500   9.756  10.622  0.4365  0.8262  0.3943
    1ACE      O    6  12.439   9.661  10.573  0.1955  0.0843  0.1215
    2ALA      N    7  12.559   9.857  10.553  0.3359  0.3230 -0.5854
    2ALA      H    8  12.632   9.909  10.598  0.4390  0.9239 -1.4260
    2ALA     CA    9  12.530   9.881  10.418  0.0384 -0.2480  0.4438
    2ALA     HA   10  12.513   9.989  10.409 -0.3265 -0.2438  1.1095
    2ALA     CB   11  12.659   9.856  10.326  0.2803 -0.5780 -0.7785
    2ALA    HB1   12  12.746   9.896  10.377 -0.4383 -1.6486  1.4512
    2ALA    HB2   13  12.672   9.748  10.324  0.7974 -0.5444  0.1359
    2ALA    HB3   14  12.638   9.914  10.236 -0.7323 -0.8053 -0.7021
    2ALA      C   15  12.403   9.840  10.350  0.3702  0.4912  0.1144
    2ALA      O   16  12.306   9.921  10.354  0.8632  0.2588  0.2750
    3ALA      N   17  12.397   9.728  10.277 -0.2547 -0.1909  0.8054
    3ALA      H   18  12.477   9.667  10.279  1.4830  1.9404  0.1708
    3ALA     CA   19  12.275   9.678  10.214 -0.0640  0.2281 -0.3503
    3ALA     HA   20  12.199   9.755  10.229  0.1226  0.1132  1.3731
    3ALA     CB   21  12.297   9.668  10.060  0.2891  0.1542  0.1975
    3ALA    HB1   22  12.323   9.772  10.037  0.1473  0.3645  0.9662
    3ALA    HB2   23  12.378   9.598  10.039 -0.8534 -1.2283  0.3671
    3ALA    HB3   24  12.204   9.633  10.016 -0.4068 -0.7295  2.2867
    3ALA      C   25  12.212   9.549  10.270 -0.0412  0.0180 -0.6990
    3ALA      O   26  12.136   9.486  10.201  0.3528 -0.1659 -0.2752
    4ALA      N   27  12.240   9.512  10.394  0.1237 -1.0224  0.0043
    4ALA      H   28  12.306   9.574  10.439  0.0799 -0.6015 -0.4955
    4ALA     CA   29  12.169   9.407  10.465 -0.5738  0.0334 -0.6845
    4ALA     HA   30  12.116   9.349  10.389 -0.5882 -1.5530  0.4913
    4ALA     CB   31  12.266   9.300  10.513 -0.7070 -0.1081  0.0141
    4ALA    HB1   32  12.314   9.245  10.433  2.5335  0.9842  1.0294
    4ALA    HB2   33  12.341   9.345  10.579  0.0933 -1.2044 -0.1240
    4ALA    HB3   34  12.204   9.229  10.567 -1.6058  0.1291 -0.6893
    4ALA      C   35  12.074   9.460  10.571  0.5031  0.1386  0.0683
    4ALA      O   36  12.069   9.419  10.687  0.2369 -0.0732  0.3600
    5NME      N   37  11.998   9.567  10.530  0.2134  0.7854 -0.4064
    5NME      H   38  12.003   9.586  10.431  0.9027  1.0913 -0.3161
    5NME    CH3   39  11.885   9.623  10.608  0.1034 -0.1574 -0.1448
    5NME   HH31   40  11.912   9.640  10.712  2.5034  2.1939 -1.0688
    5NME   HH32   41  11.844   9.717  10.573 -0.2893  0.3245  1.5106
    5NME   HH33   42  11.807   9.546  10.610  3.5295 -4.0154  0.4055
  20.91516  20.91516  20.91516
