Protein
   32
    1ACE   HH31    1  14.929  11.370  10.819 -0.4572 -0.6900  0.9122
    1ACE    CH3    2  14.862  11.302  10.768 -0.2066  0.2721 -0.7733
    1ACE   HH32    3  14.875  11.205  10.815  0.9852  0.0678 -1.5001
    1ACE   HH33    4  14.890  11.297  10.663 -0.6000  0.6316 -0.8986
    1ACE      C    5  14.720  11.330  10.782  0.9970  0.2467  0.7817
    1ACE      O    6  14.677  11.429  10.841  0.1349  0.7017  0.2154
    2ALA      N    7  14.637  11.237  10.731  0.1485  0.5056  0.2481
    2ALA      H    8  14.678  11.153  10.691 -2.8555 -0.8245 -0.3692
    2ALA     CA    9  14.496  11.220  10.780 -0.2909 -0.3893  0.1754
    2ALA     HA   10  14.442  11.302  10.732 -2.0516 -1.5990  0.0250
    2ALA     CB   11  14.444  11.093  10.720 -0.2969  0.3291  0.1169
    2ALA    HB1   12  14.348  11.077  10.769 -0.7988 -0.2468 -1.0068
    2ALA    HB2   13  14.432  11.090  10.612  1.0557  1.8566 -0.1064
    2ALA    HB3   14  14.504  11.003  10.730 -0.5319  0.0987 -0.4847
    2ALA      C   15  14.466  11.238  10.935 -0.1491  1.0555 -0.0707
    2ALA      O   16  14.464  11.144  11.014  0.0441  0.4596  0.0863
    3ALA      N   17  14.454  11.364  10.978 -0.3292  0.4527  0.9202
    3ALA      H   18  14.476  11.434  10.909  0.0231 -1.1528 -0.6878
    3ALA     CA   19  14.410  11.411  11.108  0.0660  0.4265  0.2800
    3ALA     HA   20  14.466  11.363  11.189  0.1306 -2.5692 -1.3786
    3ALA     CB   21  14.427  11.565  11.114 -0.3096  0.5561  0.1247
    3ALA    HB1   22  14.373  11.603  11.201  0.1786 -0.6770  0.9907
    3ALA    HB2   23  14.531  11.590  11.134  0.2663 -0.5830 -1.2494
    3ALA    HB3   24  14.390  11.617  11.025 -0.5675  0.1009 -0.0404
    3ALA      C   25  14.263  11.378  11.126 -0.8549  0.6928  0.1877
    3ALA      O   26  14.182  11.388  11.030 -0.5754  0.2265 -0.1121
    4NME      N   27  14.228  11.331  11.245  0.1109  0.0358  0.6976
    4NME      H   28  14.300  11.321  11.315 -0.1833  1.4319  1.2243
    4NME    CH3   29  14.086  11.316  11.287 -0.1791  0.1474  0.0958
    4NME   HH31   30  14.040  11.228  11.244 -0.4772 -0.4479  1.5626
    4NME   HH32   31  14.089  11.314  11.396  0.6178  0.6344  0.0945
    4NME   HH33   32  14.028  11.405  11.261 -0.6666 -0.1188  0.2735
  20.99041  20.99041  20.99041
