Protein
   42
    1ACE   HH31    1  12.468  12.456   4.408  0.1474 -1.3245 -0.8437
    1ACE    CH3    2  12.565  12.423   4.445  0.2417 -0.4590 -0.2908
    1ACE   HH32    3  12.619  12.518   4.444  0.7944 -0.7467  0.9622
    1ACE   HH33    4  12.609  12.346   4.382  1.4854 -0.5591  0.6671
    1ACE      C    5  12.547  12.371   4.586 -0.3227 -0.8178 -0.0063
    1ACE      O    6  12.574  12.258   4.608  0.0474  0.4557 -0.2329
    2ALA      N    7  12.481  12.456   4.670 -0.3806 -0.1905 -0.1558
    2ALA      H    8  12.453  12.546   4.634  1.0725 -0.3226 -1.7711
    2ALA     CA    9  12.413  12.402   4.791 -0.2848  0.1133  0.2012
    2ALA     HA   10  12.464  12.315   4.832 -2.9553 -0.4649  2.6225
    2ALA     CB   11  12.419  12.498   4.911 -0.0015  0.4376  0.0626
    2ALA    HB1   12  12.336  12.567   4.908 -1.1067 -0.8609 -2.0529
    2ALA    HB2   13  12.417  12.435   5.001  0.2476  0.9083  0.3971
    2ALA    HB3   14  12.516  12.549   4.910  1.1585 -1.6413 -0.4909
    2ALA      C   15  12.268  12.375   4.757  0.1591  0.1954 -0.1671
    2ALA      O   16  12.206  12.441   4.672 -0.0810  0.5534 -0.1370
    3ALA      N   17  12.202  12.264   4.800 -0.9666 -0.0722 -0.5041
    3ALA      H   18  12.115  12.252   4.750 -1.2712  1.5931 -0.4230
    3ALA     CA   19  12.242  12.154   4.895 -0.6329 -0.8253  0.5687
    3ALA     HA   20  12.345  12.119   4.885 -1.5349 -3.5901  0.1751
    3ALA     CB   21  12.216  12.205   5.035  0.4640 -0.0294 -0.2181
    3ALA    HB1   22  12.115  12.246   5.039 -0.6050 -2.6162  2.2923
    3ALA    HB2   23  12.216  12.128   5.112  0.3864 -0.6769 -0.8612
    3ALA    HB3   24  12.292  12.276   5.068  2.4907 -1.2849 -1.9548
    3ALA      C   25  12.160  12.028   4.857 -0.6423 -0.2436 -0.5027
    3ALA      O   26  12.072  12.027   4.774 -0.1776  0.4509  0.1066
    4ALA      N   27  12.198  11.919   4.921 -0.0436 -0.1195  0.1375
    4ALA      H   28  12.268  11.921   4.994  1.8181 -1.7854 -1.4646
    4ALA     CA   29  12.121  11.801   4.911 -0.3031  0.0282 -0.0419
    4ALA     HA   30  12.103  11.773   4.807  0.4849  0.4818 -0.3145
    4ALA     CB   31  12.191  11.679   4.976  0.0964 -0.3075  0.0839
    4ALA    HB1   32  12.291  11.663   4.935  1.2448 -3.0345  3.5037
    4ALA    HB2   33  12.205  11.704   5.081 -1.4681 -1.0654  0.4910
    4ALA    HB3   34  12.141  11.583   4.969  0.0703 -0.4948  2.3057
    4ALA      C   35  11.974  11.808   4.970  1.3475 -0.6851  0.7598
    4ALA      O   36  11.934  11.896   5.049 -0.3750 -0.4500  0.5644
    5NME      N   37  11.881  11.714   4.931 -0.1373 -0.6997  0.4446
    5NME      H   38  11.915  11.636   4.878  0.3520  0.3834 -0.8989
    5NME    CH3   39  11.745  11.720   4.964 -0.5068  0.3764  1.0154
    5NME   HH31   40  11.693  11.642   4.909 -0.1758  2.0271 -1.8813
    5NME   HH32   41  11.717  11.709   5.068 -0.0428 -1.8809  0.9392
    5NME   HH33   42  11.709  11.818   4.931  0.3550  0.3482 -0.0804
  20.91516  20.91516  20.91516
