Protein
   42
    1ACE   HH31    1  13.608  16.999  15.116 -0.8330  0.9371  1.6800
    1ACE    CH3    2  13.695  17.054  15.151  0.7252 -0.1452 -0.2304
    1ACE   HH32    3  13.766  16.979  15.186 -1.9823 -1.8571  2.0590
    1ACE   HH33    4  13.656  17.125  15.225  0.0159  0.9060 -1.5594
    1ACE      C    5  13.756  17.124  15.029 -0.3727  0.6375 -0.1401
    1ACE      O    6  13.869  17.085  14.993 -0.1067 -0.1277  0.4260
    2ALA      N    7  13.692  17.232  14.979  0.1871  0.0305 -0.5949
    2ALA      H    8  13.601  17.244  15.022 -0.1530  0.2693 -1.3777
    2ALA     CA    9  13.715  17.330  14.867  1.3656 -0.8525 -0.5386
    2ALA     HA   10  13.621  17.354  14.818  0.4740 -1.0715  1.0096
    2ALA     CB   11  13.760  17.461  14.936  0.2298 -0.2667  0.8560
    2ALA    HB1   12  13.846  17.441  15.000  0.6497  0.7014  0.6051
    2ALA    HB2   13  13.796  17.520  14.851 -0.4338 -1.6937 -0.4718
    2ALA    HB3   14  13.672  17.504  14.983 -0.8609 -1.4186 -0.0401
    2ALA      C   15  13.812  17.299  14.750  0.1258  0.4158  0.0772
    2ALA      O   16  13.808  17.372  14.657 -0.4665 -0.5324  0.4058
    3ALA      N   17  13.888  17.188  14.749 -0.1882  0.0391  0.0518
    3ALA      H   18  13.887  17.117  14.821  1.3963 -0.7246 -0.6323
    3ALA     CA   19  13.974  17.144  14.637  0.1764 -0.6497 -0.0374
    3ALA     HA   20  13.916  17.117  14.549  0.1178 -0.6232 -0.0070
    3ALA     CB   21  14.084  17.254  14.591 -0.5552 -0.4941 -0.2357
    3ALA    HB1   22  14.171  17.214  14.538  2.2982  0.9419  3.0318
    3ALA    HB2   23  14.041  17.329  14.524  1.7207 -0.8364 -2.2483
    3ALA    HB3   24  14.129  17.304  14.677  1.1005 -1.3638 -0.5547
    3ALA      C   25  14.059  17.014  14.675 -0.5761  0.6250  0.2510
    3ALA      O   26  14.127  16.956  14.592  0.1269 -0.3900 -0.0486
    4ALA      N   27  14.040  16.966  14.800  0.1432  0.0598 -0.0377
    4ALA      H   28  13.970  17.016  14.853 -1.2618 -1.8273 -0.0183
    4ALA     CA   29  14.103  16.853  14.875 -0.7796 -0.0764  0.5187
    4ALA     HA   30  14.133  16.895  14.970 -0.0509  1.5252 -0.3692
    4ALA     CB   31  13.985  16.756  14.906 -0.2182 -0.5380  0.2552
    4ALA    HB1   32  13.916  16.805  14.974 -1.0318  0.0173 -0.9569
    4ALA    HB2   33  13.937  16.724  14.813 -0.7360  0.2686  0.2374
    4ALA    HB3   34  14.027  16.674  14.965 -0.8761 -0.3903  0.9295
    4ALA      C   35  14.232  16.785  14.819 -0.4865 -0.7653 -0.0007
    4ALA      O   36  14.244  16.664  14.829  0.0106  0.3220  0.0189
    5NME      N   37  14.329  16.869  14.779 -0.5891 -0.0568 -0.6705
    5NME      H   38  14.299  16.964  14.761  1.1059  0.7626  0.6172
    5NME    CH3   39  14.456  16.841  14.719  0.7024  0.0869 -0.7413
    5NME   HH31   40  14.470  16.733  14.720  0.4933  0.0145  1.8467
    5NME   HH32   41  14.456  16.882  14.618  1.3891  0.1676 -0.7107
    5NME   HH33   42  14.538  16.889  14.772  1.0603 -1.2352 -0.0405
  20.91516  20.91516  20.91516
