Protein
   22
    1ACE   HH31    1   6.005   7.008   7.173 -1.6921  1.9482  0.7361
    1ACE    CH3    2   5.918   6.964   7.125 -0.1927  0.4229 -0.7273
    1ACE   HH32    3   5.829   7.022   7.150  1.1656  1.7013  1.4898
    1ACE   HH33    4   5.894   6.863   7.156  1.9818 -0.8588 -2.8749
    1ACE      C    5   5.919   6.946   6.982  0.1023  0.4807  0.1196
    1ACE      O    6   5.840   6.864   6.925  0.0476 -0.4483 -1.1864
    2ALA      N    7   5.998   7.022   6.916 -0.4755  0.1564 -0.1785
    2ALA      H    8   6.050   7.096   6.961 -0.4780  2.7749 -3.9788
    2ALA     CA    9   5.986   7.054   6.776  0.0992  1.0758  0.6533
    2ALA     HA   10   5.882   7.032   6.753  0.4723 -1.4592  1.0414
    2ALA     CB   11   6.013   7.205   6.755  0.4211 -0.2960  0.3283
    2ALA    HB1   12   6.115   7.236   6.777  0.3455 -0.0680  0.3660
    2ALA    HB2   13   5.991   7.233   6.652  0.5872  1.7372  0.8170
    2ALA    HB3   14   5.943   7.249   6.826 -1.8226 -3.0919 -0.0193
    2ALA      C   15   6.065   6.972   6.672  0.2835 -0.2056 -1.1244
    2ALA      O   16   6.047   6.999   6.556  0.3328  0.1766  0.5758
    3NME      N   17   6.155   6.885   6.724  0.2093 -0.2971  0.1419
    3NME      H   18   6.170   6.884   6.824 -1.6580 -1.3794  0.4702
    3NME    CH3   19   6.238   6.792   6.653  0.1365 -0.4622  0.8003
    3NME   HH31   20   6.236   6.816   6.546 -1.0391 -2.9302  0.2044
    3NME   HH32   21   6.343   6.774   6.679  0.3201 -0.1585  0.2995
    3NME   HH33   22   6.188   6.696   6.663 -0.8855  0.0022  0.2291
  10.72160  10.72160  10.72160
