Protein
   42
    1ACE   HH31    1  16.228  19.326  20.479 -1.1954  0.0476  0.1611
    1ACE    CH3    2  16.188  19.226  20.459  0.0356 -0.3300 -0.5195
    1ACE   HH32    3  16.166  19.210  20.354 -1.2727  1.0629 -0.4831
    1ACE   HH33    4  16.096  19.215  20.517 -0.7332  3.7135 -0.6382
    1ACE      C    5  16.296  19.124  20.499 -0.5414  0.7507  0.3538
    1ACE      O    6  16.405  19.151  20.548 -0.6071 -0.1827  0.2312
    2ALA      N    7  16.260  18.999  20.482 -0.2065  0.7150 -0.4135
    2ALA      H    8  16.173  18.979  20.433 -1.1649 -1.6190  1.9883
    2ALA     CA    9  16.340  18.877  20.531 -0.3513  0.2837  0.3197
    2ALA     HA   10  16.446  18.902  20.527 -0.7167  1.8405 -0.8820
    2ALA     CB   11  16.309  18.827  20.673  0.6485  0.6555  0.0619
    2ALA    HB1   12  16.372  18.740  20.691  2.0586  1.7387  0.7048
    2ALA    HB2   13  16.327  18.908  20.744 -1.0430  0.9523  0.1792
    2ALA    HB3   14  16.204  18.800  20.668  0.0497  2.6945  0.7389
    2ALA      C   15  16.337  18.769  20.424  0.9587 -0.1322  0.1832
    2ALA      O   16  16.225  18.726  20.395  0.5138  0.4929 -0.3337
    3ALA      N   17  16.455  18.721  20.373 -0.1601 -0.3843  0.2509
    3ALA      H   18  16.535  18.762  20.420  0.9651 -1.8477 -0.3306
    3ALA     CA   19  16.482  18.675  20.235 -0.1705  0.5122  0.0135
    3ALA     HA   20  16.578  18.723  20.213 -0.0335  0.2283 -0.0035
    3ALA     CB   21  16.505  18.527  20.251 -0.4563 -0.4101  0.4744
    3ALA    HB1   22  16.416  18.466  20.241 -0.4727 -0.6995  2.0756
    3ALA    HB2   23  16.560  18.500  20.161  0.7372 -0.5388  1.2083
    3ALA    HB3   24  16.561  18.500  20.342 -0.8471 -1.3465  0.4454
    3ALA      C   25  16.398  18.711  20.116  0.4446 -0.3848 -0.0624
    3ALA      O   26  16.459  18.759  20.022  0.1349  0.1228  0.3936
    4ALA      N   27  16.269  18.707  20.123 -0.0203  0.1819 -0.2309
    4ALA      H   28  16.242  18.687  20.218  1.0321  1.1649  0.2856
    4ALA     CA   29  16.185  18.797  20.049  0.5871 -0.2042  0.7623
    4ALA     HA   30  16.206  18.783  19.943 -1.2926 -0.3645  0.3918
    4ALA     CB   31  16.039  18.752  20.059  0.1427 -1.0417  0.5756
    4ALA    HB1   32  15.973  18.824  20.011  0.0197 -0.7383  1.1861
    4ALA    HB2   33  16.018  18.655  20.014 -1.5594 -2.3840  3.9216
    4ALA    HB3   34  16.024  18.747  20.167  2.0820 -0.5395  0.9173
    4ALA      C   35  16.192  18.943  20.078  1.4360 -0.4159 -0.0546
    4ALA      O   36  16.209  18.987  20.190  0.8932 -0.0632 -0.4281
    5NME      N   37  16.175  19.033  19.981  0.1330  0.1244 -0.7532
    5NME      H   38  16.184  19.003  19.885  1.6384  1.1572 -0.9806
    5NME    CH3   39  16.162  19.173  20.011  0.7475  1.0038  0.2102
    5NME   HH31   40  16.228  19.212  20.088  2.0059  0.4889 -0.5970
    5NME   HH32   41  16.192  19.234  19.925 -0.4505  0.2455 -0.7926
    5NME   HH33   42  16.058  19.191  20.037  0.3766 -0.1407 -0.3986
  20.91516  20.91516  20.91516
