Protein
   32
    1ACE   HH31    1  10.322   5.609  13.557  1.5388 -0.2001  0.4091
    1ACE    CH3    2  10.375   5.683  13.497  0.2192  0.1665 -0.3676
    1ACE   HH32    3  10.313   5.713  13.413 -0.6745 -1.8781 -0.4769
    1ACE   HH33    4  10.468   5.648  13.453  0.1243  0.3424 -0.7147
    1ACE      C    5  10.399   5.798  13.591 -0.8823  0.1976  0.4417
    1ACE      O    6  10.512   5.825  13.628 -0.5423  0.2830  0.0362
    2ALA      N    7  10.297   5.864  13.628 -0.0504  0.1353  0.7031
    2ALA      H    8  10.212   5.852  13.575  0.1792  0.8281  0.1700
    2ALA     CA    9  10.298   5.974  13.724 -0.0495  0.0725 -0.8188
    2ALA     HA   10  10.389   5.959  13.782 -0.1781  0.6943 -0.4460
    2ALA     CB   11  10.309   6.110  13.653  0.6018 -0.2694 -0.2303
    2ALA    HB1   12  10.212   6.150  13.623  1.0593  0.4809 -0.7909
    2ALA    HB2   13  10.361   6.186  13.711  0.6590  0.2313 -0.9217
    2ALA    HB3   14  10.358   6.112  13.555 -1.1244  0.7329 -1.1365
    2ALA      C   15  10.178   5.973  13.830  0.2961  0.5476  0.1667
    2ALA      O   16  10.083   5.899  13.825 -0.1242  0.4265 -0.5404
    3ALA      N   17  10.190   6.068  13.917 -0.0850 -0.4817  0.1492
    3ALA      H   18  10.281   6.110  13.930 -0.8565  1.7222 -1.0792
    3ALA     CA   19  10.098   6.103  14.027 -0.0519  0.4935 -0.3214
    3ALA     HA   20  10.116   6.045  14.117 -0.5877 -0.6202 -0.9142
    3ALA     CB   21  10.126   6.249  14.060  0.1216  0.7988 -0.6158
    3ALA    HB1   22  10.054   6.281  14.136 -0.7793 -2.3430 -0.0170
    3ALA    HB2   23  10.222   6.259  14.111  1.6532 -1.9562 -2.7213
    3ALA    HB3   24  10.120   6.308  13.969 -0.5388  0.1747 -0.9733
    3ALA      C   25   9.948   6.080  14.004  0.0868  0.4977  0.1332
    3ALA      O   26   9.879   6.028  14.092  0.1168  0.0816  0.4746
    4NME      N   27   9.899   6.124  13.888 -0.6990 -0.2659 -0.1368
    4NME      H   28   9.969   6.135  13.817  0.2414 -0.0134  0.7946
    4NME    CH3   29   9.757   6.111  13.851  0.1785  0.6089  0.0743
    4NME   HH31   30   9.731   6.019  13.799  0.1779  0.5643  0.1489
    4NME   HH32   31   9.701   6.096  13.943  2.3119  0.2991  1.3824
    4NME   HH33   32   9.715   6.203  13.810  1.6666  0.4308 -2.0567
  20.99041  20.99041  20.99041
