Protein
   22
    1ACE   HH31    1   6.157   1.348   4.360  0.2522 -1.0918 -0.6529
    1ACE    CH3    2   6.262   1.322   4.376  0.3906 -0.0694  0.1413
    1ACE   HH32    3   6.261   1.226   4.427  2.5287 -0.7094 -0.8713
    1ACE   HH33    4   6.312   1.401   4.433  1.2834 -1.3532  1.2029
    1ACE      C    5   6.326   1.298   4.239 -0.3152  0.1571  0.3111
    1ACE      O    6   6.273   1.347   4.144 -0.4627  0.1318 -0.7974
    2ALA      N    7   6.446   1.231   4.232  0.0020 -0.1255 -0.5958
    2ALA      H    8   6.468   1.192   4.322 -0.4897  1.0664  0.0659
    2ALA     CA    9   6.519   1.180   4.110 -0.0551  0.4211 -1.1629
    2ALA     HA   10   6.455   1.100   4.072  0.3136  0.7178 -2.4253
    2ALA     CB   11   6.540   1.284   3.990  0.2116  0.0100  0.6804
    2ALA    HB1   12   6.612   1.240   3.922  0.3014  1.2803 -0.0857
    2ALA    HB2   13   6.442   1.316   3.953 -0.6513 -0.1717  2.6657
    2ALA    HB3   14   6.588   1.376   4.024 -0.7013  0.6637  0.2643
    2ALA      C   15   6.659   1.121   4.140 -0.2348  0.4416 -0.1129
    2ALA      O   16   6.695   1.028   4.065  0.0323 -0.3796  0.3893
    3NME      N   17   6.732   1.165   4.246  0.8227  0.4854 -0.2584
    3NME      H   18   6.692   1.239   4.302  2.1448  0.9947  0.0523
    3NME    CH3   19   6.871   1.124   4.272  0.6352  0.7080  0.2072
    3NME   HH31   20   6.928   1.120   4.179 -1.3889 -1.4112 -1.1103
    3NME   HH32   21   6.925   1.193   4.337 -0.6405  1.6956  0.2836
    3NME   HH33   22   6.873   1.023   4.312  0.3712  0.1286 -1.1882
  10.72160  10.72160  10.72160
