Protein
   42
    1ACE   HH31    1  17.120  15.666  10.916 -0.0639 -1.6583  0.6259
    1ACE    CH3    2  17.187  15.699  10.995  0.0870 -0.0982 -0.1310
    1ACE   HH32    3  17.137  15.775  11.055 -1.2037 -1.0572  0.0668
    1ACE   HH33    4  17.288  15.729  10.967  0.5985 -1.6807 -0.0521
    1ACE      C    5  17.195  15.580  11.089 -0.1457  0.3164  0.0988
    1ACE      O    6  17.142  15.589  11.197  0.0622  0.3368 -0.0688
    2ALA      N    7  17.243  15.466  11.040 -0.9181 -0.0017  0.0990
    2ALA      H    8  17.289  15.466  10.950 -0.8640 -0.1833  0.1269
    2ALA     CA    9  17.233  15.334  11.100  0.3608  0.2973 -0.2481
    2ALA     HA   10  17.275  15.258  11.034 -0.6181 -0.6702  0.1953
    2ALA     CB   11  17.326  15.307  11.218 -0.0015 -0.6506 -0.4422
    2ALA    HB1   12  17.318  15.388  11.291 -0.4167 -0.7789 -0.3431
    2ALA    HB2   13  17.303  15.214  11.270  3.0149 -1.1177  0.2489
    2ALA    HB3   14  17.430  15.313  11.187 -0.4417 -2.2782 -2.3849
    2ALA      C   15  17.087  15.293  11.126 -0.7946  0.1333  0.6010
    2ALA      O   16  17.026  15.242  11.032  0.3403 -0.3629  0.7081
    3ALA      N   17  17.024  15.326  11.241 -0.0087  0.3593  0.5290
    3ALA      H   18  17.076  15.384  11.306  0.9911 -1.8476  1.7881
    3ALA     CA   19  16.878  15.309  11.258 -0.8506  0.0363  0.1534
    3ALA     HA   20  16.848  15.312  11.363 -0.6493  1.9913  0.1787
    3ALA     CB   21  16.793  15.425  11.193 -0.3622 -0.1123  0.2871
    3ALA    HB1   22  16.692  15.434  11.234  0.5083  1.6409  2.2637
    3ALA    HB2   23  16.831  15.527  11.205 -0.9759  0.0427  1.0198
    3ALA    HB3   24  16.786  15.405  11.086 -2.0037 -0.9854  0.5166
    3ALA      C   25  16.816  15.175  11.224  0.0771 -0.1732 -0.2156
    3ALA      O   26  16.872  15.072  11.253 -0.3186 -0.1643 -0.2756
    4ALA      N   27  16.696  15.167  11.165 -0.2219 -0.7565  0.6148
    4ALA      H   28  16.652  15.257  11.154 -0.8568 -0.7951  2.4067
    4ALA     CA   29  16.626  15.061  11.091  0.7340  0.0510 -0.4678
    4ALA     HA   30  16.624  14.979  11.162 -0.6507  0.4296 -0.0146
    4ALA     CB   31  16.476  15.099  11.069 -0.1470 -0.1050  0.3798
    4ALA    HB1   32  16.405  15.019  11.052 -1.9519  1.7071 -1.1652
    4ALA    HB2   33  16.429  15.149  11.154 -1.2076 -0.4190 -0.0091
    4ALA    HB3   34  16.463  15.170  10.987  1.1961 -1.0439 -0.6968
    4ALA      C   35  16.691  15.008  10.960  0.1681 -0.3818  1.1208
    4ALA      O   36  16.639  14.903  10.916 -0.0956 -0.0622 -0.0866
    5NME      N   37  16.804  15.067  10.913  0.5471 -0.1026  0.4459
    5NME      H   38  16.834  15.153  10.955  0.9006  0.4901 -0.9374
    5NME    CH3   39  16.890  14.994  10.816  0.3079  0.0733  0.3824
    5NME   HH31   40  16.980  14.967  10.871  0.7185 -1.6726 -1.0317
    5NME   HH32   41  16.840  14.907  10.774  2.0664 -0.0740 -1.6248
    5NME   HH33   42  16.914  15.064  10.736  1.4310 -1.4261 -0.6420
  20.91516  20.91516  20.91516
