Protein
   42
    1ACE   HH31    1  13.670   5.109  13.074 -0.0776  0.1779  0.0507
    1ACE    CH3    2  13.698   5.212  13.097 -0.4459  0.2487  0.1938
    1ACE   HH32    3  13.749   5.206  13.193 -1.3132 -3.0961  0.5713
    1ACE   HH33    4  13.606   5.271  13.102  1.1725  3.1587 -1.5302
    1ACE      C    5  13.776   5.283  12.983  0.0528 -0.4946  0.2930
    1ACE      O    6  13.847   5.380  13.010  0.1235  0.2815  0.4980
    2ALA      N    7  13.750   5.226  12.864  0.3586  0.1398 -0.2349
    2ALA      H    8  13.691   5.144  12.866 -1.0859  1.1616  0.2957
    2ALA     CA    9  13.787   5.281  12.736  0.1989  0.6010  0.0086
    2ALA     HA   10  13.746   5.218  12.657 -0.2780  0.6245  0.2282
    2ALA     CB   11  13.695   5.406  12.717  0.4537  0.3262  0.5317
    2ALA    HB1   12  13.690   5.433  12.612  0.3981  1.7436  0.8799
    2ALA    HB2   13  13.590   5.396  12.747  0.0900  2.6309  0.1582
    2ALA    HB3   14  13.737   5.488  12.775 -2.0583  1.9088  0.2927
    2ALA      C   15  13.942   5.299  12.704 -0.1553 -0.1772 -0.4981
    2ALA      O   16  13.975   5.397  12.643 -0.3287  0.3305  0.4916
    3ALA      N   17  14.035   5.216  12.758  0.1039  0.9322  0.0209
    3ALA      H   18  14.127   5.254  12.744 -0.2969  2.2196  0.7031
    3ALA     CA   19  14.019   5.084  12.826  0.2618  0.5024  0.4463
    3ALA     HA   20  13.928   5.036  12.789  0.2400  0.0130  1.1092
    3ALA     CB   21  14.130   4.994  12.769  0.0952  0.3861  0.3823
    3ALA    HB1   22  14.227   5.031  12.802  0.3379 -1.6643  2.2150
    3ALA    HB2   23  14.128   4.890  12.800  1.0213  0.2815  0.1227
    3ALA    HB3   24  14.130   4.993  12.660  3.1618 -2.7024  0.2694
    3ALA      C   25  14.007   5.082  12.983  0.1042 -0.0420  0.2205
    3ALA      O   26  13.950   4.990  13.037  0.7117  0.0277 -0.2830
    4ALA      N   27  14.074   5.171  13.048 -0.1220  0.0388 -0.0627
    4ALA      H   28  14.119   5.233  12.982  1.7316 -2.4115 -1.2559
    4ALA     CA   29  14.128   5.146  13.181 -0.1094 -0.5299 -0.7218
    4ALA     HA   30  14.114   5.042  13.211 -1.0323 -0.0665  0.5774
    4ALA     CB   31  14.281   5.183  13.174  0.4945  0.0673 -0.2097
    4ALA    HB1   32  14.299   5.289  13.153  0.3102  0.1936  0.2440
    4ALA    HB2   33  14.326   5.157  13.270 -0.7072 -2.1117 -0.1841
    4ALA    HB3   34  14.340   5.111  13.118  1.4426 -0.5148  1.4721
    4ALA      C   35  14.067   5.239  13.291  0.1506  0.1146 -0.2013
    4ALA      O   36  14.108   5.216  13.406 -0.3995 -0.0689 -0.2665
    5NME      N   37  13.985   5.338  13.263 -0.2111 -0.5894  0.0598
    5NME      H   38  13.952   5.349  13.168  2.8554  3.0245 -0.8502
    5NME    CH3   39  13.912   5.427  13.351  0.5420  0.8067  0.5673
    5NME   HH31   40  13.925   5.530  13.319 -1.2386  0.5777 -1.0976
    5NME   HH32   41  13.805   5.408  13.344 -0.2276  4.8964 -1.7235
    5NME   HH33   42  13.945   5.418  13.455  0.1681  1.3040  0.7304
  20.91516  20.91516  20.91516
