Protein
   42
    1ACE   HH31    1   9.862   6.833  15.030  0.6069  1.2488  0.2549
    1ACE    CH3    2   9.931   6.809  14.950  0.2714 -0.3030  0.4018
    1ACE   HH32    3   9.916   6.707  14.915  1.5116 -1.9614  4.2350
    1ACE   HH33    4  10.027   6.824  15.000 -0.1005  1.7162  0.5819
    1ACE      C    5   9.919   6.906  14.835  0.4462 -0.1724 -0.2862
    1ACE      O    6   9.946   6.878  14.723  0.3823 -0.3952  0.4850
    2ALA      N    7   9.885   7.025  14.873  0.9235 -0.0458 -0.2052
    2ALA      H    8   9.865   7.033  14.972  0.2282 -2.3287 -0.0762
    2ALA     CA    9   9.888   7.151  14.795  0.0320  0.9137 -0.4218
    2ALA     HA   10   9.789   7.168  14.752 -0.0718  0.3975 -0.3890
    2ALA     CB   11   9.898   7.266  14.890 -0.4779 -0.3271 -0.1115
    2ALA    HB1   12   9.813   7.262  14.959  0.2356  0.9541  0.9021
    2ALA    HB2   13   9.997   7.282  14.931 -1.4591  2.1750  1.5507
    2ALA    HB3   14   9.893   7.353  14.823 -1.9336 -0.6183 -0.4134
    2ALA      C   15   9.994   7.152  14.680  0.1212  0.1988 -0.7238
    2ALA      O   16  10.107   7.192  14.705  0.5690  0.1679  0.1520
    3ALA      N   17   9.964   7.119  14.556 -0.1142 -0.4844  0.0899
    3ALA      H   18   9.880   7.063  14.546 -0.0318 -0.3514 -1.5210
    3ALA     CA   19  10.049   7.125  14.441  0.0072 -0.0101  0.4701
    3ALA     HA   20   9.991   7.087  14.357  0.3818  0.9792 -0.2589
    3ALA     CB   21  10.071   7.266  14.399 -0.2857 -0.1576  0.5406
    3ALA    HB1   22  10.115   7.308  14.489  0.6137  1.0316 -0.4223
    3ALA    HB2   23  10.137   7.265  14.312 -2.8293 -1.0026 -1.5040
    3ALA    HB3   24   9.985   7.322  14.363 -0.1677 -0.3438 -0.0522
    3ALA      C   25  10.180   7.038  14.422  0.0777  0.0525 -0.8099
    3ALA      O   26  10.262   7.063  14.332 -0.0872  0.3034  0.0046
    4ALA      N   27  10.195   6.951  14.519  0.1093 -0.0464 -0.1535
    4ALA      H   28  10.113   6.943  14.579  0.2433 -0.2053  0.0165
    4ALA     CA   29  10.312   6.892  14.574 -0.7002  0.0147  0.2558
    4ALA     HA   30  10.296   6.870  14.679 -0.1273 -3.1117 -0.2038
    4ALA     CB   31  10.337   6.751  14.512  0.2619 -0.1262 -0.0134
    4ALA    HB1   32  10.416   6.710  14.576 -1.0384  1.6218  2.9187
    4ALA    HB2   33  10.251   6.686  14.523 -0.2265  0.3668 -0.8572
    4ALA    HB3   34  10.370   6.753  14.408  0.2237  0.6793 -0.0202
    4ALA      C   35  10.445   6.981  14.568  0.3827 -0.0977  0.2953
    4ALA      O   36  10.552   6.935  14.537 -0.2614 -0.6125  0.2707
    5NME      N   37  10.435   7.116  14.582  0.2189  0.4486  0.3162
    5NME      H   38  10.344   7.152  14.604  0.9788  0.3030  4.4316
    5NME    CH3   39  10.551   7.200  14.551  0.2364 -0.0767 -0.4362
    5NME   HH31   40  10.533   7.296  14.600  1.5393  0.2615 -0.5818
    5NME   HH32   41  10.641   7.157  14.594 -0.1944  0.5589  1.1766
    5NME   HH33   42  10.561   7.216  14.444  1.7956  0.6443 -0.2139
  20.91516  20.91516  20.91516
