Protein
   42
    1ACE   HH31    1  10.314   9.433  14.931 -0.1487  0.0435  0.5353
    1ACE    CH3    2  10.370   9.360  14.989  0.1534  0.0534  0.2631
    1ACE   HH32    3  10.334   9.258  14.986  2.0050 -0.6261 -0.1343
    1ACE   HH33    4  10.351   9.398  15.090 -1.6263 -0.4786  0.1599
    1ACE      C    5  10.519   9.362  14.960  0.7450 -0.3975 -0.2181
    1ACE      O    6  10.583   9.258  14.973 -0.0847 -0.0558  0.1496
    2ALA      N    7  10.568   9.472  14.908 -0.3603 -0.4314 -0.0669
    2ALA      H    8  10.511   9.555  14.904 -1.3829 -1.1117 -0.1329
    2ALA     CA    9  10.707   9.475  14.845 -0.0555 -0.4740  1.0400
    2ALA     HA   10  10.708   9.382  14.788 -1.3253 -0.2828  0.6813
    2ALA     CB   11  10.711   9.588  14.755  0.5772 -0.5094  0.2266
    2ALA    HB1   12  10.644   9.568  14.672 -0.1690 -1.5334  1.0563
    2ALA    HB2   13  10.680   9.681  14.803  0.8560 -0.0172 -0.5097
    2ALA    HB3   14  10.810   9.598  14.708 -0.2882  0.3761 -1.5366
    2ALA      C   15  10.817   9.471  14.953 -0.1877  0.4046  0.2828
    2ALA      O   16  10.827   9.556  15.040 -0.4523  0.1211 -0.8499
    3ALA      N   17  10.900   9.365  14.972  0.1896  0.0685  0.4775
    3ALA      H   18  10.980   9.375  15.033  0.0685 -0.7117  0.7743
    3ALA     CA   19  10.899   9.234  14.900  0.0878  0.0252  0.4477
    3ALA     HA   20  10.794   9.218  14.872 -0.9830 -1.2423  4.4044
    3ALA     CB   21  10.993   9.237  14.785 -0.0677  0.3491  0.0533
    3ALA    HB1   22  11.001   9.143  14.731  3.0251  1.3627 -1.5063
    3ALA    HB2   23  10.956   9.317  14.721 -2.0812  0.6026  1.4282
    3ALA    HB3   24  11.094   9.263  14.816 -0.3588  0.3902  1.0174
    3ALA      C   25  10.915   9.103  14.986 -0.8487 -0.5846  0.2717
    3ALA      O   26  11.015   9.033  14.983 -0.2264  0.7926 -0.0884
    4ALA      N   27  10.809   9.070  15.053 -0.0686  0.5213  0.6806
    4ALA      H   28  10.734   9.138  15.050 -2.1072 -1.6261 -0.5341
    4ALA     CA   29  10.796   8.960  15.147  0.6339 -0.0122 -0.3772
    4ALA     HA   30  10.840   8.866  15.112 -1.9711 -1.0193 -1.2569
    4ALA     CB   31  10.866   9.003  15.280 -0.2128 -0.2743 -0.2433
    4ALA    HB1   32  10.966   9.045  15.267 -0.2562  0.1500  0.6623
    4ALA    HB2   33  10.806   9.085  15.320  1.0239  0.3338  0.4162
    4ALA    HB3   34  10.873   8.914  15.341  0.7260  0.7413  1.2365
    4ALA      C   35  10.646   8.928  15.184  0.1152 -0.4631  0.1465
    4ALA      O   36  10.625   8.846  15.273  0.1435  0.1596  0.1188
    5NME      N   37  10.545   8.989  15.123  0.6962  0.3464  0.5245
    5NME      H   38  10.556   9.065  15.056  0.9021  1.0462  1.3381
    5NME    CH3   39  10.406   8.959  15.137  0.6635  0.2337 -0.1632
    5NME   HH31   40  10.378   8.894  15.054  1.9747 -0.5431 -0.0344
    5NME   HH32   41  10.379   8.920  15.235  0.5452  1.2598  0.2217
    5NME   HH33   42  10.354   9.054  15.127  0.8383  0.1062 -2.7738
  20.91516  20.91516  20.91516
