Protein
   32
    1ACE   HH31    1  13.132   9.315  14.162  0.6673 -2.1059  1.1601
    1ACE    CH3    2  13.175   9.287  14.066 -0.1224 -0.1029  0.1672
    1ACE   HH32    3  13.190   9.179  14.057  1.6836  0.2028 -1.3714
    1ACE   HH33    4  13.269   9.340  14.048  0.2423  0.1429  2.5099
    1ACE      C    5  13.066   9.323  13.961  0.0252 -0.2121  0.2470
    1ACE      O    6  12.996   9.237  13.913 -0.1363  0.1684 -0.8556
    2ALA      N    7  13.058   9.445  13.922  0.3476  0.2787 -0.6439
    2ALA      H    8  13.123   9.507  13.968  1.2194 -0.9561 -0.1719
    2ALA     CA    9  12.952   9.501  13.836  0.5961 -0.6813  0.4664
    2ALA     HA   10  12.893   9.412  13.814  0.1004  0.1532 -1.8078
    2ALA     CB   11  12.879   9.606  13.917 -0.2984  0.3679  0.3436
    2ALA    HB1   12  12.856   9.570  14.018 -1.8235  0.6549  0.1256
    2ALA    HB2   13  12.936   9.699  13.922 -0.9826  0.7812  0.7355
    2ALA    HB3   14  12.779   9.629  13.878 -0.0706  1.5111  0.3801
    2ALA      C   15  13.004   9.556  13.703  0.0515  0.0705  0.0130
    2ALA      O   16  13.095   9.637  13.692  0.0050  0.1517  0.3565
    3ALA      N   17  12.939   9.512  13.596 -0.1823  0.1087 -0.1159
    3ALA      H   18  12.856   9.457  13.616  1.4387 -2.0365  1.0730
    3ALA     CA   19  12.954   9.554  13.456 -0.0418  0.7821  0.2303
    3ALA     HA   20  13.046   9.603  13.425 -1.1532  1.6277 -2.0311
    3ALA     CB   21  12.942   9.425  13.364 -0.2320 -0.1089  0.4359
    3ALA    HB1   22  13.030   9.365  13.390 -0.2881  0.1397  1.2351
    3ALA    HB2   23  12.847   9.375  13.384 -1.0666  0.7161 -1.3028
    3ALA    HB3   24  12.950   9.457  13.261 -0.1294  2.8873  1.2956
    3ALA      C   25  12.847   9.660  13.413 -0.5375 -0.1265 -0.2103
    3ALA      O   26  12.736   9.645  13.459  0.2122  0.0376 -0.3015
    4NME      N   27  12.883   9.758  13.329  0.2135 -0.0799 -0.2060
    4NME      H   28  12.974   9.747  13.286  0.1757  1.3328 -0.6870
    4NME    CH3   29  12.790   9.853  13.262  0.2048  0.4690  0.0096
    4NME   HH31   30  12.756   9.922  13.338  0.2899 -0.0403  0.5117
    4NME   HH32   31  12.830   9.909  13.177 -0.0353  0.5132 -0.0767
    4NME   HH33   32  12.708   9.788  13.229 -0.8916  0.7799  1.9702
  20.99041  20.99041  20.99041
