Protein
   42
    1ACE   HH31    1   7.149   7.951   2.932 -0.7692 -1.7117 -0.7579
    1ACE    CH3    2   7.049   7.943   2.975 -0.3879 -0.9128  0.3182
    1ACE   HH32    3   7.013   8.044   2.991  1.4187 -0.0027 -0.9862
    1ACE   HH33    4   7.051   7.881   3.066  0.7582 -1.3080  0.0536
    1ACE      C    5   6.964   7.872   2.871 -0.4290 -0.4538 -0.1800
    1ACE      O    6   6.904   7.769   2.905  0.1360  0.1634  0.5815
    2ALA      N    7   6.972   7.921   2.747 -0.1625  0.3229 -0.5878
    2ALA      H    8   7.026   8.005   2.733 -0.1514  0.3101 -0.6180
    2ALA     CA    9   6.902   7.857   2.634 -0.7482 -0.4414  0.8842
    2ALA     HA   10   6.888   7.750   2.647 -0.6050 -0.4385  1.0921
    2ALA     CB   11   6.766   7.913   2.613  0.2283  0.0852  0.1856
    2ALA    HB1   12   6.704   7.903   2.703  1.9909  0.7366  1.5304
    2ALA    HB2   13   6.778   8.020   2.598 -0.7512  0.3606  1.1563
    2ALA    HB3   14   6.716   7.886   2.520  0.7954  3.2207 -1.1420
    2ALA      C   15   6.982   7.866   2.504  0.5785 -0.0406 -0.3225
    2ALA      O   16   6.957   7.942   2.413 -0.3588  0.1976 -0.0027
    3ALA      N   17   7.101   7.797   2.492  0.7905 -0.2438 -0.4938
    3ALA      H   18   7.154   7.796   2.406  0.9814 -0.4895 -0.3715
    3ALA     CA   19   7.175   7.736   2.596  0.3005 -0.3227 -0.4052
    3ALA     HA   20   7.119   7.694   2.679 -0.8347  0.5627 -0.6987
    3ALA     CB   21   7.244   7.617   2.542 -0.6745  0.0667  0.5265
    3ALA    HB1   22   7.175   7.543   2.501 -2.1886  2.3257 -1.2817
    3ALA    HB2   23   7.317   7.638   2.463 -0.0299 -2.3306  0.3954
    3ALA    HB3   24   7.306   7.582   2.625  0.7972  1.8511  0.2607
    3ALA      C   25   7.281   7.837   2.649 -0.1888 -0.1113 -0.0401
    3ALA      O   26   7.338   7.818   2.756  0.1462 -0.3845 -0.0578
    4ALA      N   27   7.316   7.943   2.579 -0.4539  0.4952  0.5284
    4ALA      H   28   7.266   7.957   2.493 -0.6898 -1.1135  0.3703
    4ALA     CA   29   7.371   8.062   2.638  0.7065 -0.1791 -0.0789
    4ALA     HA   30   7.470   8.043   2.680 -0.3609  0.0269  2.6879
    4ALA     CB   31   7.381   8.162   2.521  0.0027  0.5470  0.3494
    4ALA    HB1   32   7.284   8.180   2.474  0.2773 -0.2363 -0.5588
    4ALA    HB2   33   7.423   8.257   2.554  1.5381  0.0386 -0.0031
    4ALA    HB3   34   7.440   8.138   2.432  0.4625  2.5604  0.0568
    4ALA      C   35   7.278   8.122   2.745 -0.1210  0.2976  0.0902
    4ALA      O   36   7.159   8.153   2.720  0.2063  0.2415 -0.1252
    5NME      N   37   7.325   8.121   2.871 -0.3382 -0.8343  0.0735
    5NME      H   38   7.409   8.068   2.890 -0.0287  0.1880  1.7784
    5NME    CH3   39   7.276   8.201   2.979  0.4852  0.1104 -0.2548
    5NME   HH31   40   7.342   8.206   3.066 -1.3198 -1.3394  1.2912
    5NME   HH32   41   7.263   8.298   2.931 -0.6448  0.8643  1.4591
    5NME   HH33   42   7.178   8.173   3.018  1.4989 -2.3640  0.7277
  20.91516  20.91516  20.91516
