Protein
   22
    1ACE   HH31    1   0.079   3.808   3.773 -1.3568 -0.6165 -0.5463
    1ACE    CH3    2   0.054   3.893   3.710 -0.5510  0.1276  0.1022
    1ACE   HH32    3   0.115   3.976   3.747 -0.2099 -0.7330  1.5616
    1ACE   HH33    4  -0.049   3.925   3.724  0.2191  2.1797  1.6234
    1ACE      C    5   0.087   3.867   3.563 -0.5004 -0.1234 -0.9823
    1ACE      O    6   0.108   3.965   3.491  0.2628 -0.0312 -0.3654
    2ALA      N    7   0.094   3.739   3.524 -0.8753 -0.5278 -0.3328
    2ALA      H    8   0.087   3.668   3.595 -0.5894 -1.7016 -1.4492
    2ALA     CA    9   0.111   3.686   3.386  0.5216 -0.0229 -0.4459
    2ALA     HA   10   0.095   3.768   3.315  0.6865  1.0802  0.7271
    2ALA     CB   11   0.257   3.644   3.367  0.1606  0.2432 -0.1561
    2ALA    HB1   12   0.261   3.607   3.265 -2.1890 -1.7466  0.3694
    2ALA    HB2   13   0.329   3.722   3.392 -0.9850  1.2098  0.1901
    2ALA    HB3   14   0.281   3.558   3.430 -0.7621 -1.8952 -2.5446
    2ALA      C   15   0.016   3.572   3.360  0.0031  0.3679 -0.0546
    2ALA      O   16  -0.044   3.507   3.450  0.4072 -0.0293 -0.2079
    3NME      N   17   0.013   3.534   3.234  0.2150 -0.3100  0.2308
    3NME      H   18   0.050   3.602   3.170 -3.1091  3.1619  1.6299
    3NME    CH3   19  -0.045   3.405   3.185 -0.4352 -0.4024  0.0277
    3NME   HH31   20  -0.096   3.429   3.091 -0.1543  0.7557  0.1585
    3NME   HH32   21   0.035   3.331   3.186 -0.3242 -0.2774  0.2863
    3NME   HH33   22  -0.110   3.371   3.266  0.7557  0.2469  1.3003
  10.72160  10.72160  10.72160
