Protein
   42
    1ACE   HH31    1  10.070   7.500  15.472 -0.2907  2.4949  1.3388
    1ACE    CH3    2   9.989   7.453  15.527  0.1257 -0.4106 -0.2466
    1ACE   HH32    3  10.012   7.349  15.547 -0.5275 -0.9627 -2.2835
    1ACE   HH33    4   9.900   7.440  15.467  0.8199 -1.3314 -1.1111
    1ACE      C    5   9.961   7.529  15.658  0.7614  0.3937  0.7035
    1ACE      O    6   9.950   7.464  15.761  0.2458  0.3668 -0.2252
    2ALA      N    7   9.952   7.661  15.644 -0.3882  0.1134  0.1206
    2ALA      H    8   9.950   7.701  15.551  1.9813  0.4310  0.1336
    2ALA     CA    9   9.972   7.752  15.758 -0.0213 -0.1940 -0.4605
    2ALA     HA   10   9.973   7.855  15.725 -1.7681 -0.3887 -1.2933
    2ALA     CB   11   9.858   7.745  15.864  0.0873  0.6149  0.8750
    2ALA    HB1   12   9.833   7.642  15.891 -2.5664  0.0108 -2.9573
    2ALA    HB2   13   9.885   7.804  15.951 -2.6999  1.4027  1.3163
    2ALA    HB3   14   9.767   7.793  15.828 -0.8319 -1.8197 -0.2775
    2ALA      C   15  10.115   7.737  15.813  0.0265 -0.8202  0.1770
    2ALA      O   16  10.196   7.821  15.794 -0.6424  0.1281 -0.1402
    3ALA      N   17  10.141   7.620  15.875  0.3207 -0.7915 -0.5500
    3ALA      H   18  10.061   7.559  15.871 -1.5098  1.4896 -1.4057
    3ALA     CA   19  10.245   7.571  15.959 -0.4192 -0.0512  0.0473
    3ALA     HA   20  10.193   7.508  16.032 -0.5062  0.3654  0.3512
    3ALA     CB   21  10.333   7.481  15.868 -0.0283 -0.0595 -0.1423
    3ALA    HB1   22  10.418   7.453  15.930  0.1546  2.8134  1.0283
    3ALA    HB2   23  10.275   7.397  15.829 -0.8598 -0.4436  1.8343
    3ALA    HB3   24  10.370   7.550  15.792  0.7146  1.4534  1.5114
    3ALA      C   25  10.329   7.673  16.053  0.4604 -0.2428 -0.0428
    3ALA      O   26  10.365   7.634  16.163 -0.3012 -0.5368 -0.3101
    4ALA      N   27  10.370   7.785  16.000  0.5771  0.1655 -0.2974
    4ALA      H   28  10.339   7.809  15.907  0.7937 -4.3886 -1.8099
    4ALA     CA   29  10.462   7.871  16.063  0.2789  0.6491 -0.7183
    4ALA     HA   30  10.481   7.839  16.165 -0.0625  0.7946 -0.6082
    4ALA     CB   31  10.600   7.853  16.004 -0.5305 -0.5180  0.0343
    4ALA    HB1   32  10.666   7.789  16.060  0.3857 -0.6239 -1.1309
    4ALA    HB2   33  10.608   7.838  15.896 -0.5267  0.6520 -0.1509
    4ALA    HB3   34  10.645   7.952  16.009  0.3815 -0.8909 -0.5250
    4ALA      C   35  10.407   8.017  16.058 -0.0123  0.2756 -0.4331
    4ALA      O   36  10.462   8.094  16.140  0.2104 -0.4846 -0.0660
    5NME      N   37  10.319   8.053  15.965  1.0576  0.0660 -0.2751
    5NME      H   38  10.305   7.978  15.900 -2.1308 -0.8998  1.3302
    5NME    CH3   39  10.260   8.186  15.955 -0.6246  0.0570  0.2778
    5NME   HH31   40  10.184   8.196  16.033 -1.1875 -2.4985  0.1659
    5NME   HH32   41  10.332   8.265  15.977 -0.4532 -0.3721  1.3695
    5NME   HH33   42  10.215   8.213  15.859  1.0121  1.2940 -0.1779
  20.91516  20.91516  20.91516
