Protein
   42
    1ACE   HH31    1   7.129  13.351  15.181 -1.2118 -0.9525  0.4017
    1ACE    CH3    2   7.129  13.330  15.074  0.4019  1.1766 -0.0831
    1ACE   HH32    3   7.233  13.306  15.050  0.6516  1.3630  0.7788
    1ACE   HH33    4   7.078  13.413  15.024 -1.8885  0.1739  0.4933
    1ACE      C    5   7.039  13.209  15.049  0.4280  0.4879  0.1121
    1ACE      O    6   7.073  13.124  14.969  0.0926  0.9251 -0.0672
    2ALA      N    7   6.928  13.208  15.120  0.0316  0.3536  0.1190
    2ALA      H    8   6.920  13.286  15.184 -1.7443  0.0232  0.3358
    2ALA     CA    9   6.830  13.095  15.139  0.0834 -0.2027 -0.4606
    2ALA     HA   10   6.753  13.094  15.062  0.5913 -0.5607 -0.9655
    2ALA     CB   11   6.897  12.958  15.147 -0.3892  0.4789  0.4559
    2ALA    HB1   12   6.983  12.959  15.214  1.5814  2.1703 -1.9125
    2ALA    HB2   13   6.834  12.870  15.158  1.2958 -1.1295 -1.9243
    2ALA    HB3   14   6.941  12.940  15.049  1.4537  0.1681  1.2877
    2ALA      C   15   6.763  13.118  15.273 -0.0911  0.5381  0.2226
    2ALA      O   16   6.795  13.220  15.341 -0.1755 -0.4682  0.2337
    3ALA      N   17   6.674  13.025  15.307  0.5469 -0.1711 -0.0145
    3ALA      H   18   6.656  12.946  15.246  0.6510  0.2526 -0.6141
    3ALA     CA   19   6.594  13.029  15.433  0.3203 -0.3075  0.0840
    3ALA     HA   20   6.664  13.069  15.506 -1.0377  2.8621 -0.1590
    3ALA     CB   21   6.468  13.117  15.415 -0.4440  1.0209 -0.6469
    3ALA    HB1   22   6.398  13.113  15.498 -1.7045  3.9687 -1.4630
    3ALA    HB2   23   6.492  13.221  15.397  1.7301  0.5361 -0.8667
    3ALA    HB3   24   6.400  13.081  15.338  1.4351  0.7352 -2.2365
    3ALA      C   25   6.559  12.883  15.471  0.4513  0.0150 -0.2541
    3ALA      O   26   6.553  12.788  15.388 -0.6746  0.1093  0.4233
    4ALA      N   27   6.527  12.853  15.599 -0.2005 -0.0384  0.3197
    4ALA      H   28   6.517  12.929  15.665 -0.4414  0.5887 -0.4196
    4ALA     CA   29   6.507  12.718  15.657 -0.4512  0.5008 -0.0091
    4ALA     HA   30   6.418  12.668  15.619  0.1154 -0.3136 -0.2939
    4ALA     CB   31   6.624  12.623  15.628  0.4376 -0.5118 -0.1419
    4ALA    HB1   32   6.725  12.657  15.652  1.7644 -2.5782 -2.3465
    4ALA    HB2   33   6.626  12.539  15.698 -0.8726  0.8271  1.6515
    4ALA    HB3   34   6.632  12.582  15.528  2.8359  0.7811 -0.5534
    4ALA      C   35   6.482  12.732  15.813 -0.5323 -0.1233  0.6880
    4ALA      O   36   6.467  12.846  15.861 -0.1196 -0.6416  0.2231
    5NME      N   37   6.458  12.616  15.882  0.0696 -0.1333  0.1180
    5NME      H   38   6.469  12.528  15.834 -0.2042  0.0752 -0.3361
    5NME    CH3   39   6.430  12.614  16.025  0.0416 -0.2267  0.2016
    5NME   HH31   40   6.378  12.704  16.056 -1.6063 -1.0907  0.0841
    5NME   HH32   41   6.365  12.533  16.057 -1.5730  1.1063  0.3743
    5NME   HH33   42   6.523  12.616  16.083 -1.4061  2.5513  2.7105
  20.91516  20.91516  20.91516
