Protein
   42
    1ACE   HH31    1   8.991  13.372  14.032  2.3303 -1.1349  5.2004
    1ACE    CH3    2   9.078  13.433  14.011  0.2016  0.7151  0.0331
    1ACE   HH32    3   9.077  13.517  14.081  0.2073  0.6243  0.1393
    1ACE   HH33    4   9.080  13.477  13.912 -3.3263  2.3539  0.5683
    1ACE      C    5   9.202  13.351  14.028 -0.3346 -0.2782 -0.8612
    1ACE      O    6   9.304  13.420  14.058  0.7781  0.1309 -0.3305
    2ALA      N    7   9.198  13.224  14.008 -0.3316  0.3427  0.1040
    2ALA      H    8   9.114  13.172  13.989  0.6275 -1.0131 -0.6680
    2ALA     CA    9   9.305  13.131  14.041 -0.5196  0.2161 -0.0521
    2ALA     HA   10   9.386  13.184  14.091  0.6297 -0.6889 -0.9147
    2ALA     CB   11   9.250  13.024  14.141  0.5487 -0.6783 -0.0165
    2ALA    HB1   12   9.338  12.964  14.163  1.4246  1.0989  1.4578
    2ALA    HB2   13   9.202  13.071  14.226 -3.9527  0.0322 -2.5613
    2ALA    HB3   14   9.178  12.956  14.094  0.0587  1.7793 -3.2092
    2ALA      C   15   9.372  13.085  13.911  0.2547 -0.9641  0.1620
    2ALA      O   16   9.341  12.980  13.862 -0.1879  0.1326  0.5399
    3ALA      N   17   9.471  13.156  13.846 -0.3155 -0.1124 -0.1519
    3ALA      H   18   9.490  13.140  13.748 -1.7557 -1.9160 -0.1780
    3ALA     CA   19   9.544  13.270  13.899 -0.8955  0.0009 -0.2277
    3ALA     HA   20   9.492  13.309  13.987 -1.1792  1.4724 -1.0258
    3ALA     CB   21   9.684  13.229  13.942  0.1405 -0.5330  0.1315
    3ALA    HB1   22   9.744  13.300  13.999  2.0166 -1.8316 -0.1558
    3ALA    HB2   23   9.669  13.145  14.009 -1.5067 -0.1913  0.2314
    3ALA    HB3   24   9.736  13.191  13.854  1.3370 -0.2460  0.6782
    3ALA      C   25   9.548  13.387  13.796  0.4115 -0.1094  0.8830
    3ALA      O   26   9.555  13.368  13.676  0.4973  0.0898  0.3523
    4ALA      N   27   9.542  13.512  13.852  0.0211  0.3505  0.3405
    4ALA      H   28   9.534  13.525  13.951  2.8038  2.2791  0.4505
    4ALA     CA   29   9.558  13.635  13.774 -0.2291  0.2757  0.3588
    4ALA     HA   30   9.573  13.622  13.667 -0.6022  2.2055  0.0502
    4ALA     CB   31   9.430  13.715  13.787  0.1142 -0.5288 -0.0400
    4ALA    HB1   32   9.349  13.658  13.742  0.1661 -1.3695  0.8834
    4ALA    HB2   33   9.401  13.742  13.889  1.5901  1.2821 -0.0518
    4ALA    HB3   34   9.439  13.809  13.734  1.0715 -1.8579 -2.3521
    4ALA      C   35   9.685  13.716  13.818  0.1533 -0.9888 -0.3406
    4ALA      O   36   9.714  13.726  13.936  0.2262  0.1349 -0.8241
    5NME      N   37   9.747  13.794  13.725 -0.7584  0.0602 -0.3727
    5NME      H   38   9.711  13.787  13.631  1.5999 -1.0943 -1.2550
    5NME    CH3   39   9.886  13.852  13.731 -0.5585  0.0278  0.1725
    5NME   HH31   40   9.891  13.957  13.758  0.1852  0.2573 -0.7704
    5NME   HH32   41   9.956  13.794  13.791  2.0496  0.5657 -2.1160
    5NME   HH33   42   9.932  13.855  13.632 -3.0833 -0.7923 -1.1312
  20.91516  20.91516  20.91516
