Protein
   32
    1ACE   HH31    1  11.136   7.989   7.119 -0.2223  1.7209 -1.9267
    1ACE    CH3    2  11.196   8.063   7.171  0.1559 -0.0397  0.3432
    1ACE   HH32    3  11.301   8.037   7.180 -0.1022 -0.6181  2.2745
    1ACE   HH33    4  11.147   8.072   7.268 -1.0325  2.4524 -0.3854
    1ACE      C    5  11.185   8.186   7.089  0.2279  0.6879  0.3357
    1ACE      O    6  11.079   8.215   7.040 -0.5235 -0.5565  0.4986
    2ALA      N    7  11.296   8.256   7.080 -0.0546 -0.4932 -0.2677
    2ALA      H    8  11.381   8.222   7.123  0.2361  0.8376  0.2324
    2ALA     CA    9  11.286   8.393   7.036 -0.0593 -0.2621  0.1372
    2ALA     HA   10  11.205   8.409   6.965 -1.2531  1.2288  1.7652
    2ALA     CB   11  11.247   8.480   7.149  0.0173  0.6359 -0.4508
    2ALA    HB1   12  11.237   8.584   7.117 -0.8033  0.6622 -0.1267
    2ALA    HB2   13  11.157   8.453   7.205  0.9386 -1.2691  0.1861
    2ALA    HB3   14  11.312   8.481   7.236  0.2218  2.6274 -0.5592
    2ALA      C   15  11.417   8.421   6.972 -1.1696 -0.6399  0.6136
    2ALA      O   16  11.512   8.346   6.987 -0.2719 -0.0041  0.2028
    3ALA      N   17  11.435   8.533   6.900 -0.4210 -0.1836 -0.1307
    3ALA      H   18  11.360   8.598   6.882 -0.6565 -0.4094  0.0359
    3ALA     CA   19  11.561   8.553   6.820  0.1683 -0.6533  0.1115
    3ALA     HA   20  11.594   8.453   6.792 -1.6655 -1.7899  1.7438
    3ALA     CB   21  11.528   8.643   6.699 -0.6517  0.8526  0.3717
    3ALA    HB1   22  11.434   8.606   6.659  0.1819 -0.5823 -0.3443
    3ALA    HB2   23  11.507   8.747   6.726 -0.5361  0.7308  0.9301
    3ALA    HB3   24  11.606   8.640   6.624  0.6937  1.5669  1.6911
    3ALA      C   25  11.680   8.618   6.900 -0.8604  0.4164  0.8877
    3ALA      O   26  11.794   8.606   6.859 -0.6141 -0.2096 -0.2220
    4NME      N   27  11.652   8.666   7.019 -0.5982 -0.3101 -0.1185
    4NME      H   28  11.553   8.672   7.043 -0.7909  2.6971 -1.3526
    4NME    CH3   29  11.738   8.754   7.100 -0.0324 -0.5730  0.0803
    4NME   HH31   30  11.697   8.854   7.114 -0.1204 -0.6624  0.4969
    4NME   HH32   31  11.754   8.710   7.199  1.0705  1.9871  1.1162
    4NME   HH33   32  11.836   8.769   7.057 -0.6655 -1.0819 -1.6398
  20.99041  20.99041  20.99041
