Protein
   60
    1ACE   HH31    1  21.008  22.528  19.511  0.4611  0.0325  0.0616
    1ACE    CH3    2  21.013  22.541  19.619 -0.0311  1.3696 -0.0701
    1ACE   HH32    3  20.913  22.514  19.654  0.2752 -2.5126 -1.6758
    1ACE   HH33    4  21.098  22.481  19.650  0.3488  1.5099 -0.8161
    1ACE      C    5  21.032  22.681  19.667  0.1539 -0.2490 -0.5117
    1ACE      O    6  21.129  22.714  19.728 -0.1778 -0.5363  0.4377
    2TRP      N    7  20.941  22.774  19.633  0.3095 -0.2729  0.7360
    2TRP      H    8  20.979  22.867  19.644 -0.2130  0.0833 -0.3314
    2TRP     CA    9  20.828  22.770  19.536 -0.2061 -0.4885 -0.2266
    2TRP     HA   10  20.761  22.697  19.582  0.1562 -0.7465 -0.1104
    2TRP     CB   11  20.762  22.904  19.540  0.3693 -1.0018 -0.3798
    2TRP    HB1   12  20.837  22.980  19.521 -0.6737 -0.0683 -0.9088
    2TRP    HB2   13  20.712  22.927  19.635 -0.2542  0.3193 -0.9998
    2TRP     CG   14  20.652  22.922  19.440  0.2084  0.0357  0.1214
    2TRP    CD1   15  20.527  22.895  19.470  1.0856  0.1782 -0.2501
    2TRP    HD1   16  20.484  22.864  19.564  2.7428 -2.0751 -0.1707
    2TRP    NE1   17  20.455  22.903  19.352 -0.6846  0.3322 -0.4599
    2TRP    HE1   18  20.355  22.883  19.350 -1.7327  4.6113 -2.3222
    2TRP    CE2   19  20.527  22.949  19.244  0.3297  0.5368  0.6544
    2TRP    CZ2   20  20.498  22.974  19.106 -0.2609 -0.4718  0.1938
    2TRP    HZ2   21  20.401  22.967  19.060 -0.3963 -0.5863  0.4912
    2TRP    CH2   22  20.601  23.009  19.020 -0.7090  0.6312  0.4529
    2TRP    HH2   23  20.584  23.023  18.914  0.9978  0.6433  0.1383
    2TRP    CZ3   24  20.736  23.027  19.070 -0.2644 -0.5938 -0.4393
    2TRP    HZ3   25  20.819  23.049  19.006 -0.8894  0.7774 -0.8034
    2TRP    CE3   26  20.759  22.997  19.207 -0.5568 -0.1635 -0.1640
    2TRP    HE3   27  20.861  23.001  19.240  0.6381 -1.8021 -3.2935
    2TRP    CD2   28  20.657  22.960  19.297 -0.0940 -0.3363 -0.0687
    2TRP      C   29  20.866  22.729  19.392  0.5767 -1.4266 -0.1318
    2TRP      O   30  20.962  22.780  19.344 -0.7194  0.0572 -0.5303
    3TRP      N   31  20.782  22.654  19.315 -0.5122 -0.1152 -0.9437
    3TRP      H   32  20.812  22.632  19.220  0.6841  0.8338 -0.8010
    3TRP     CA   33  20.661  22.575  19.346 -0.1597 -0.2063 -0.1006
    3TRP     HA   34  20.611  22.625  19.429 -1.2972 -0.1262 -0.8219
    3TRP     CB   35  20.687  22.428  19.385 -0.4204  0.0572 -0.2220
    3TRP    HB1   36  20.740  22.414  19.479  0.7050 -1.2778 -1.0192
    3TRP    HB2   37  20.586  22.389  19.396 -0.6806  0.7366 -0.1086
    3TRP     CG   38  20.761  22.345  19.288 -0.1440 -0.1238 -0.1392
    3TRP    CD1   39  20.900  22.343  19.277  0.5818  0.0754 -0.3379
    3TRP    HD1   40  20.965  22.405  19.336  0.5635  0.2343 -0.4873
    3TRP    NE1   41  20.935  22.239  19.190  0.0788 -0.2676 -0.1668
    3TRP    HE1   42  21.029  22.209  19.166 -0.2338 -1.0997 -0.3830
    3TRP    CE2   43  20.822  22.182  19.134 -0.9197  0.8594 -0.1895
    3TRP    CZ2   44  20.820  22.085  19.031 -0.5506  0.2340 -0.0754
    3TRP    HZ2   45  20.912  22.040  18.996  0.1975  1.2511  0.5450
    3TRP    CH2   46  20.692  22.034  18.997  0.1462  0.4208 -0.4611
    3TRP    HH2   47  20.678  21.954  18.926  0.0935 -1.1688  1.2681
    3TRP    CZ3   48  20.581  22.072  19.072 -0.1302 -0.1982 -0.0622
    3TRP    HZ3   49  20.483  22.028  19.057 -0.7902  1.0062  0.5443
    3TRP    CE3   50  20.590  22.172  19.173 -0.0910  0.0063 -0.5022
    3TRP    HE3   51  20.502  22.206  19.226  0.7131 -0.1998  1.0202
    3TRP    CD2   52  20.711  22.236  19.205 -0.3606 -0.1476 -0.1115
    3TRP      C   53  20.556  22.560  19.233  0.2009  0.3286  0.3432
    3TRP      O   54  20.432  22.564  19.264 -0.4386  0.7054 -0.2680
    4NME      N   55  20.600  22.536  19.109  0.4619  0.3607  0.5895
    4NME      H   56  20.697  22.509  19.102  0.5979  0.6305  1.4334
    4NME    CH3   57  20.508  22.506  19.000  0.2806  0.5327  0.8704
    4NME   HH31   58  20.532  22.409  18.955  1.0386  1.4495 -0.8044
    4NME   HH32   59  20.404  22.508  19.033  0.2827 -1.6610  1.1659
    4NME   HH33   60  20.522  22.582  18.923 -3.3796  0.4623 -0.0566
  41.12396  41.12396  41.12396
