Protein
   42
    1ACE   HH31    1  11.698   5.116  15.188  0.9998  0.7375 -1.5280
    1ACE    CH3    2  11.780   5.048  15.167  0.6571 -0.2012  0.0269
    1ACE   HH32    3  11.736   4.952  15.140  0.1731  0.6539 -2.5066
    1ACE   HH33    4  11.831   5.041  15.264  1.0890  0.3396 -0.1563
    1ACE      C    5  11.875   5.098  15.063 -0.1832 -0.2390  0.0084
    1ACE      O    6  11.968   5.174  15.092  0.3526  0.5135  0.5265
    2ALA      N    7  11.865   5.046  14.945 -0.1286 -0.4321 -0.2200
    2ALA      H    8  11.777   4.998  14.931 -1.1347  1.0151  0.8900
    2ALA     CA    9  11.961   5.068  14.826 -0.1084 -0.3319 -0.3233
    2ALA     HA   10  12.059   5.065  14.874  0.8837  1.6630 -2.0198
    2ALA     CB   11  11.943   4.944  14.737 -0.6260  0.0411  0.6194
    2ALA    HB1   12  12.005   4.959  14.649  0.4304 -2.1963  0.8967
    2ALA    HB2   13  11.976   4.852  14.787  2.9186 -0.5631 -2.4613
    2ALA    HB3   14  11.837   4.944  14.712 -0.5275  0.6935  0.1787
    2ALA      C   15  11.933   5.204  14.761  0.6575  0.0603  0.4119
    2ALA      O   16  11.984   5.217  14.653 -0.5975 -0.0889  0.3313
    3ALA      N   17  11.855   5.296  14.813 -0.3753  0.5437 -0.4550
    3ALA      H   18  11.805   5.265  14.896  0.2843  1.7890  0.4393
    3ALA     CA   19  11.825   5.428  14.767  0.0829 -0.3122  0.4502
    3ALA     HA   20  11.728   5.447  14.814  0.3107  0.7769  0.5037
    3ALA     CB   21  11.923   5.525  14.838  0.8502  0.5076 -0.1361
    3ALA    HB1   22  11.891   5.625  14.809 -2.7746 -0.0407  1.3932
    3ALA    HB2   23  11.914   5.506  14.945  0.8296 -1.8848 -0.4955
    3ALA    HB3   24  12.025   5.494  14.816  0.2695 -1.8773  0.2047
    3ALA      C   25  11.806   5.460  14.618  0.0643  0.3574  0.6456
    3ALA      O   26  11.825   5.567  14.565  0.1365  0.5952  0.1987
    4ALA      N   27  11.744   5.371  14.541 -0.3448  0.6740 -0.3011
    4ALA      H   28  11.722   5.282  14.582 -0.5676 -0.2419 -2.2900
    4ALA     CA   29  11.710   5.371  14.401  0.3068  0.6498  0.4699
    4ALA     HA   30  11.669   5.466  14.366  1.2417  0.0884 -2.4007
    4ALA     CB   31  11.842   5.343  14.322 -0.2289 -0.4810 -0.7373
    4ALA    HB1   32  11.875   5.245  14.357 -2.4503 -0.8466  0.5581
    4ALA    HB2   33  11.816   5.357  14.217 -1.5357  0.9551 -0.2564
    4ALA    HB3   34  11.910   5.425  14.344 -0.3050 -0.7624  0.7247
    4ALA      C   35  11.612   5.260  14.376  0.3564 -0.5171  0.3652
    4ALA      O   36  11.563   5.200  14.469 -0.0211  1.1615 -0.1144
    5NME      N   37  11.581   5.239  14.247 -0.3319 -0.1173  0.6077
    5NME      H   38  11.599   5.308  14.175 -1.8014 -0.3741 -0.0463
    5NME    CH3   39  11.499   5.133  14.199  0.2866  0.0284 -0.3034
    5NME   HH31   40  11.464   5.147  14.097  1.3811  1.2262 -0.5300
    5NME   HH32   41  11.558   5.041  14.204  1.5329  0.8908  2.9038
    5NME   HH33   42  11.415   5.113  14.266 -0.2171  1.1983 -0.5687
  20.91516  20.91516  20.91516
