Protein
   22
    1ACE   HH31    1   8.344   9.842   4.880 -2.7588  0.3679 -1.6376
    1ACE    CH3    2   8.392   9.887   4.793  0.3838  0.2764 -0.0510
    1ACE   HH32    3   8.499   9.892   4.815  0.6066 -5.2060  1.3390
    1ACE   HH33    4   8.339   9.982   4.788 -1.8861 -0.7338  2.6092
    1ACE      C    5   8.357   9.804   4.673  0.2756  0.8158  0.0937
    1ACE      O    6   8.317   9.846   4.568  0.8155 -0.3276 -0.6978
    2ALA      N    7   8.364   9.671   4.693 -0.1129 -0.1140  0.2533
    2ALA      H    8   8.393   9.649   4.788  2.2099  2.7440  0.3517
    2ALA     CA    9   8.370   9.570   4.588  0.7341  1.1817 -0.7987
    2ALA     HA   10   8.279   9.566   4.528  1.0963 -2.3695 -1.3483
    2ALA     CB   11   8.479   9.607   4.481  0.3973 -0.2582 -0.2979
    2ALA    HB1   12   8.427   9.662   4.403  0.3177 -0.8182 -0.6484
    2ALA    HB2   13   8.565   9.653   4.529 -0.7458  2.8890 -1.0914
    2ALA    HB3   14   8.511   9.515   4.433 -0.0025 -0.1240 -0.8285
    2ALA      C   15   8.400   9.433   4.658  0.2088  0.0731 -0.2007
    2ALA      O   16   8.509   9.393   4.670 -0.1222 -0.0131  0.1273
    3NME      N   17   8.292   9.361   4.691 -0.8712  0.1190 -0.5812
    3NME      H   18   8.206   9.414   4.688 -2.7339 -2.3672  2.0265
    3NME    CH3   19   8.292   9.221   4.742  0.1621 -0.4593 -0.4931
    3NME   HH31   20   8.330   9.149   4.670  0.1023 -1.2003  0.2140
    3NME   HH32   21   8.364   9.212   4.822 -0.8560 -2.7393  0.2176
    3NME   HH33   22   8.195   9.189   4.781 -0.6108  0.8855 -1.2073
  10.72160  10.72160  10.72160
