Protein
   32
    1ACE   HH31    1   9.315  11.077   5.109 -0.3360  1.2003 -0.4428
    1ACE    CH3    2   9.395  11.003   5.096 -0.3490  1.1414 -0.2372
    1ACE   HH32    3   9.404  10.989   4.988 -0.1614  0.7157 -0.1688
    1ACE   HH33    4   9.373  10.911   5.149  3.9561  0.0643  0.0901
    1ACE      C    5   9.523  11.053   5.150 -0.1075  0.4475  0.3049
    1ACE      O    6   9.516  11.147   5.222 -0.2233  0.3475  0.3070
    2ALA      N    7   9.633  10.997   5.103  0.7373  0.4388 -0.1466
    2ALA      H    8   9.612  10.913   5.049 -0.3108 -0.5616  1.6975
    2ALA     CA    9   9.769  11.022   5.141  0.9443  0.3231  0.3453
    2ALA     HA   10   9.824  10.931   5.119 -1.6093 -1.3612  0.4735
    2ALA     CB   11   9.815  11.129   5.038 -0.2630 -0.4981 -0.0251
    2ALA    HB1   12   9.914  11.166   5.065  0.0363 -1.7963  0.7500
    2ALA    HB2   13   9.812  11.106   4.932  1.0396  1.1398 -0.4694
    2ALA    HB3   14   9.753  11.219   5.045  2.2928  1.4080 -0.4890
    2ALA      C   15   9.792  11.065   5.290 -0.0056  0.2326 -0.3563
    2ALA      O   16   9.905  11.103   5.324  0.2684 -0.6147  0.2886
    3ALA      N   17   9.694  11.049   5.380 -0.2351 -0.2731 -0.6458
    3ALA      H   18   9.601  11.061   5.341 -0.2209 -1.1324 -0.9565
    3ALA     CA   19   9.710  11.042   5.532  0.1591  0.7187  0.9645
    3ALA     HA   20   9.738  11.144   5.560  2.6687  0.0766  1.0115
    3ALA     CB   21   9.579  11.000   5.602 -0.3381 -0.2550  0.4070
    3ALA    HB1   22   9.496  11.028   5.538  1.9946 -1.3929 -3.4050
    3ALA    HB2   23   9.583  10.891   5.603  0.8029 -0.3058 -1.7423
    3ALA    HB3   24   9.564  11.041   5.702 -1.8384  0.6049 -0.1484
    3ALA      C   25   9.826  10.961   5.604 -0.3194 -0.0817 -0.5822
    3ALA      O   26   9.825  10.938   5.728  0.9766 -0.5243  0.4832
    4NME      N   27   9.929  10.913   5.534  0.0236 -1.0417 -0.1888
    4NME      H   28   9.948  10.949   5.442  1.3968  1.0320  0.8158
    4NME    CH3   29  10.036  10.826   5.579  0.9869  0.9171 -0.6076
    4NME   HH31   30  10.105  10.807   5.497 -0.4197 -2.7834 -1.1373
    4NME   HH32   31  10.092  10.868   5.663  2.8060 -1.4911 -0.4992
    4NME   HH33   32   9.984  10.736   5.612 -0.5905  1.3887 -1.6897
  20.99041  20.99041  20.99041
