Protein
   42
    1ACE   HH31    1   4.334  10.725  12.974  2.0852  0.1485  1.8343
    1ACE    CH3    2   4.310  10.831  12.979  0.0532 -0.1822  0.2396
    1ACE   HH32    3   4.403  10.888  12.977  0.6937 -0.8476  3.9488
    1ACE   HH33    4   4.259  10.853  13.073  2.3691 -1.7189  1.9699
    1ACE      C    5   4.237  10.871  12.856  1.1519 -0.0829  0.0851
    1ACE      O    6   4.200  10.787  12.775 -0.5286 -0.3257 -0.2960
    2ALA      N    7   4.189  10.994  12.848 -0.6620  0.0468 -0.4246
    2ALA      H    8   4.193  11.049  12.932 -1.9469 -1.0925  0.4264
    2ALA     CA    9   4.135  11.060  12.726  0.9266 -0.7037 -0.3837
    2ALA     HA   10   4.174  11.009  12.638  1.0094 -0.4819 -0.4769
    2ALA     CB   11   3.975  11.034  12.729 -0.0000 -0.0811 -0.1274
    2ALA    HB1   12   3.925  11.077  12.815 -2.2545 -0.0217 -1.3925
    2ALA    HB2   13   3.933  11.082  12.640  1.5866  0.6198 -0.5388
    2ALA    HB3   14   3.952  10.928  12.739 -2.3846 -0.0041 -3.3339
    2ALA      C   15   4.179  11.212  12.710 -0.0164 -0.0887 -0.1602
    2ALA      O   16   4.213  11.270  12.810  0.1533  0.0684 -0.1724
    3ALA      N   17   4.182  11.260  12.583  0.2671  0.2100  0.0600
    3ALA      H   18   4.160  11.200  12.505 -1.2058  1.4525 -0.5096
    3ALA     CA   19   4.226  11.387  12.544 -1.4259  0.1114  0.4284
    3ALA     HA   20   4.182  11.465  12.607  0.6965  0.9405  0.9813
    3ALA     CB   21   4.382  11.389  12.557 -0.2662 -0.2896 -0.1568
    3ALA    HB1   22   4.415  11.377  12.660  1.7098 -2.5461 -0.9496
    3ALA    HB2   23   4.420  11.303  12.501 -2.6389 -0.6334 -1.4200
    3ALA    HB3   24   4.425  11.475  12.506 -0.1029  1.4794  2.7806
    3ALA      C   25   4.195  11.407  12.394  0.5775 -0.2763  0.3751
    3ALA      O   26   4.119  11.333  12.336  0.0775  0.0522 -0.5792
    4ALA      N   27   4.243  11.516  12.327  0.5899  0.0215  0.1579
    4ALA      H   28   4.299  11.585  12.375  0.2388  0.3545  0.0950
    4ALA     CA   29   4.253  11.536  12.184  0.1536  0.4934 -0.0077
    4ALA     HA   30   4.331  11.611  12.178 -1.2290  1.9075 -1.7730
    4ALA     CB   31   4.319  11.419  12.105  0.1090  0.4431  0.2537
    4ALA    HB1   32   4.346  11.455  12.006  0.8672 -0.2113  0.2121
    4ALA    HB2   33   4.408  11.375  12.151  0.1958 -2.6556 -2.4800
    4ALA    HB3   34   4.245  11.340  12.093 -0.1732  0.6036  0.9231
    4ALA      C   35   4.130  11.600  12.114 -1.0365 -0.1509  0.0681
    4ALA      O   36   4.152  11.704  12.056  0.5036 -0.6295 -0.3857
    5NME      N   37   4.012  11.534  12.125  0.2236 -0.3759 -0.2388
    5NME      H   38   4.011  11.459  12.194 -1.0282  2.4237  3.0822
    5NME    CH3   39   3.885  11.566  12.059  0.2590  0.6173 -0.2505
    5NME   HH31   40   3.810  11.595  12.133  0.5247 -0.5011  0.4952
    5NME   HH32   41   3.894  11.636  11.976 -1.5325 -0.6646 -1.6283
    5NME   HH33   42   3.838  11.477  12.017  0.1420  1.6379 -2.4272
  20.91516  20.91516  20.91516
