Protein
   22
    1ACE   HH31    1  10.339   0.016   7.912 -0.3350  1.2259 -0.0273
    1ACE    CH3    2  10.381   0.018   8.013 -0.0747 -0.3465 -0.0914
    1ACE   HH32    3  10.372   0.118   8.056  0.7640 -0.2021 -0.2401
    1ACE   HH33    4  10.485  -0.014   8.010 -0.5277 -1.9866  0.1855
    1ACE      C    5  10.302  -0.087   8.095 -0.3705  0.5912  0.7191
    1ACE      O    6  10.191  -0.116   8.060  0.2159  0.2450  0.4527
    2ALA      N    7  10.362  -0.127   8.207  0.7221  0.0830  0.7649
    2ALA      H    8  10.458  -0.096   8.216  1.1249 -0.2842 -1.5274
    2ALA     CA    9  10.298  -0.205   8.306 -0.0312  0.6528  0.1556
    2ALA     HA   10  10.199  -0.231   8.267 -0.6704  0.2471  1.9767
    2ALA     CB   11  10.365  -0.343   8.319 -0.4750 -0.2234 -1.1228
    2ALA    HB1   12  10.383  -0.395   8.225  1.3409  0.1929 -1.0336
    2ALA    HB2   13  10.462  -0.334   8.368 -0.8237  4.1263 -0.8243
    2ALA    HB3   14  10.305  -0.413   8.377  0.5212  0.8031  1.2888
    2ALA      C   15  10.287  -0.139   8.440 -0.1277  0.3489  0.2264
    2ALA      O   16  10.388  -0.092   8.498  0.1845  0.0971  0.5680
    3NME      N   17  10.157  -0.127   8.477  0.0772 -0.0425 -0.6174
    3NME      H   18  10.087  -0.177   8.425 -1.3391  0.0272  1.1558
    3NME    CH3   19  10.108  -0.061   8.600 -0.2783 -0.4017 -0.5843
    3NME   HH31   20  10.189  -0.052   8.672 -0.9650 -0.4738  0.2067
    3NME   HH32   21  10.072   0.040   8.579  1.1629  0.3302  0.2711
    3NME   HH33   22  10.029  -0.122   8.643 -0.8989 -0.1181 -1.2919
  10.72160  10.72160  10.72160
