Protein
   42
    1ACE   HH31    1  13.172  11.031  15.594  0.1117  0.7968 -0.4381
    1ACE    CH3    2  13.164  11.119  15.657  0.2608  0.3388  0.2276
    1ACE   HH32    3  13.102  11.088  15.741 -0.3160  3.3664  1.0628
    1ACE   HH33    4  13.116  11.199  15.600  1.6962  0.1786 -1.2913
    1ACE      C    5  13.306  11.157  15.702  0.5535 -0.4256 -0.7043
    1ACE      O    6  13.400  11.088  15.670 -0.4715  0.2656 -0.1016
    2ALA      N    7  13.319  11.267  15.779 -0.3486  0.2538  0.1839
    2ALA      H    8  13.245  11.336  15.778  0.2261  0.8999  0.7831
    2ALA     CA    9  13.444  11.308  15.842 -0.0261 -0.1082 -1.0163
    2ALA     HA   10  13.523  11.315  15.768  1.5212  1.8278  0.6647
    2ALA     CB   11  13.425  11.452  15.895 -0.0373 -0.2941  0.5001
    2ALA    HB1   12  13.340  11.473  15.959  1.0532 -0.6515  2.1328
    2ALA    HB2   13  13.512  11.491  15.949  0.1164  2.6680 -1.6340
    2ALA    HB3   14  13.413  11.511  15.804 -2.9368  2.1830  2.3149
    2ALA      C   15  13.484  11.219  15.961  0.5507 -0.2752 -0.9413
    2ALA      O   16  13.400  11.192  16.045 -0.3059  0.0100  0.0545
    3ALA      N   17  13.607  11.168  15.966  0.3983  0.3802  0.4869
    3ALA      H   18  13.617  11.098  16.039 -0.2880 -0.2554 -0.0266
    3ALA     CA   19  13.731  11.232  15.917 -0.2577 -0.4487  0.0480
    3ALA     HA   20  13.715  11.340  15.913  0.6579 -0.2988  0.1673
    3ALA     CB   21  13.846  11.210  16.013  0.2279  0.2567 -0.0614
    3ALA    HB1   22  13.932  11.260  15.968 -0.3533 -0.6025 -2.2648
    3ALA    HB2   23  13.826  11.262  16.107 -1.3282 -1.1566  0.4328
    3ALA    HB3   24  13.866  11.104  16.026  0.4465  0.3349  0.2281
    3ALA      C   25  13.761  11.187  15.766  0.7318 -0.5160  0.3318
    3ALA      O   26  13.826  11.265  15.699  0.3181  0.5795  0.5213
    4ALA      N   27  13.726  11.065  15.724  0.6033 -0.3579  0.2099
    4ALA      H   28  13.673  11.013  15.792  0.4960  0.8079  1.0577
    4ALA     CA   29  13.771  11.000  15.595 -0.0560 -0.0492  0.3875
    4ALA     HA   30  13.880  11.000  15.604  0.2619 -2.4859 -1.9918
    4ALA     CB   31  13.721  10.852  15.591 -0.3376 -0.3334 -0.8768
    4ALA    HB1   32  13.774  10.785  15.658  0.5406 -0.6936 -1.8966
    4ALA    HB2   33  13.614  10.836  15.604 -0.4278  0.7052 -0.2195
    4ALA    HB3   34  13.746  10.808  15.494  1.4263 -1.0996 -0.1319
    4ALA      C   35  13.734  11.066  15.458  0.3687  0.3484 -0.0944
    4ALA      O   36  13.791  11.040  15.353 -0.5526  0.6369 -0.5764
    5NME      N   37  13.634  11.157  15.474 -0.0496  0.4387 -0.3920
    5NME      H   38  13.591  11.160  15.565 -2.3419 -1.4191 -1.2934
    5NME    CH3   39  13.577  11.253  15.375 -0.1995  0.1415 -0.2892
    5NME   HH31   40  13.569  11.211  15.275 -0.3416 -0.5478  0.0051
    5NME   HH32   41  13.474  11.273  15.404 -0.8279 -0.6651 -1.8599
    5NME   HH33   42  13.638  11.343  15.369 -0.0822  0.1177  0.4101
  20.91516  20.91516  20.91516
