Protein
   42
    1ACE   HH31    1  14.893  12.231   3.751 -1.5415  3.4609  2.1841
    1ACE    CH3    2  14.989  12.281   3.743  0.2548  0.1217  1.0643
    1ACE   HH32    3  15.066  12.246   3.811  1.7338  0.6652 -0.2538
    1ACE   HH33    4  14.972  12.388   3.749  0.0770  0.5055 -3.1018
    1ACE      C    5  15.038  12.251   3.604 -0.2056  0.5685 -0.1826
    1ACE      O    6  15.156  12.222   3.588  0.4034 -0.2052  0.4662
    2ALA      N    7  14.951  12.248   3.505 -0.4945  0.1380  0.1934
    2ALA      H    8  14.857  12.285   3.518 -0.2940  0.6916  0.0742
    2ALA     CA    9  14.993  12.271   3.359  0.0107  0.0690  0.1418
    2ALA     HA   10  15.027  12.175   3.320 -2.8960 -0.8525 -0.3549
    2ALA     CB   11  14.868  12.290   3.266  0.1748  0.4221  0.0221
    2ALA    HB1   12  14.905  12.262   3.167  2.9784  0.7710  0.8783
    2ALA    HB2   13  14.794  12.217   3.298 -0.2876  0.7604 -0.2583
    2ALA    HB3   14  14.814  12.385   3.268 -0.3685  0.1163 -0.0526
    2ALA      C   15  15.102  12.374   3.341 -0.0031 -0.0631 -0.4073
    2ALA      O   16  15.104  12.481   3.406 -0.0658  0.8396  0.1999
    3ALA      N   17  15.196  12.361   3.245 -0.2793  0.0469 -0.7039
    3ALA      H   18  15.181  12.293   3.172 -0.1337 -0.0424 -0.6574
    3ALA     CA   19  15.331  12.411   3.261 -0.5648  0.0007  0.2889
    3ALA     HA   20  15.395  12.323   3.266  0.7567  0.8523 -0.8506
    3ALA     CB   21  15.383  12.500   3.145  0.1161  1.0345  0.7332
    3ALA    HB1   22  15.486  12.526   3.168  0.7521  0.6771 -1.4443
    3ALA    HB2   23  15.375  12.456   3.046 -1.1031  1.0027  0.8235
    3ALA    HB3   24  15.329  12.594   3.154  0.7104  1.3396  1.1438
    3ALA      C   25  15.384  12.481   3.396  0.0179 -0.3806 -0.0880
    3ALA      O   26  15.445  12.585   3.394 -0.2684  0.6763 -0.5662
    4ALA      N   27  15.352  12.420   3.512 -0.7161  0.0738  0.2480
    4ALA      H   28  15.282  12.347   3.508 -0.4197 -0.1935 -3.2577
    4ALA     CA   29  15.412  12.451   3.644 -0.3150  0.7881  0.2312
    4ALA     HA   30  15.376  12.372   3.709 -1.1555  1.5108  0.6744
    4ALA     CB   31  15.568  12.426   3.637  0.0652  0.2035  0.5031
    4ALA    HB1   32  15.620  12.491   3.566 -0.4313  1.3328  1.1378
    4ALA    HB2   33  15.607  12.433   3.739 -1.2344  0.6584  0.9920
    4ALA    HB3   34  15.592  12.325   3.606  0.9090  0.7241 -0.5712
    4ALA      C   35  15.365  12.581   3.718 -0.3987  0.2974  0.2770
    4ALA      O   36  15.370  12.594   3.837  0.0871  0.4337 -0.3573
    5NME      N   37  15.326  12.676   3.638 -0.3676 -0.5296 -0.0137
    5NME      H   38  15.320  12.657   3.539 -2.1666  1.2039 -0.3115
    5NME    CH3   39  15.282  12.812   3.685 -0.5103 -0.0692 -0.4531
    5NME   HH31   40  15.326  12.839   3.781 -1.5792 -2.5152  0.8250
    5NME   HH32   41  15.313  12.889   3.615  0.3205  0.8066  0.8304
    5NME   HH33   42  15.173  12.813   3.688 -0.5217 -0.9220 -0.4003
  20.91516  20.91516  20.91516
