Protein
   42
    1ACE   HH31    1   5.640  11.649  16.433 -1.2195 -1.5511 -1.4100
    1ACE    CH3    2   5.677  11.702  16.345  0.8041  0.3984  0.4790
    1ACE   HH32    3   5.590  11.709  16.280  1.0326 -0.8180  0.0239
    1ACE   HH33    4   5.745  11.627  16.303  0.7320  0.1814  0.7437
    1ACE      C    5   5.734  11.839  16.367 -0.1883 -0.2101  0.3686
    1ACE      O    6   5.695  11.934  16.299  0.2535 -0.3978  0.1542
    2ALA      N    7   5.832  11.855  16.456 -0.4343  0.5437  0.2402
    2ALA      H    8   5.872  11.775  16.504 -1.7333  1.0830  2.3163
    2ALA     CA    9   5.898  11.984  16.502 -0.3000  0.6329 -0.2762
    2ALA     HA   10   5.918  12.046  16.416 -1.5995  1.4417 -0.0592
    2ALA     CB   11   5.803  12.055  16.600 -0.1686 -0.1523 -0.1179
    2ALA    HB1   12   5.775  11.985  16.679  0.7853 -0.5766 -0.1483
    2ALA    HB2   13   5.850  12.141  16.646 -2.4585  2.1868 -1.8242
    2ALA    HB3   14   5.717  12.096  16.546  0.1363 -0.2541 -0.6918
    2ALA      C   15   6.024  11.933  16.571 -0.1543 -0.1846 -0.1480
    2ALA      O   16   6.025  11.842  16.656  0.2076 -0.7192  0.1933
    3ALA      N   17   6.141  11.996  16.552  0.2291  0.1764 -0.3552
    3ALA      H   18   6.215  11.953  16.604  0.2382  1.2808  0.5825
    3ALA     CA   19   6.168  12.131  16.509  0.9469 -0.8720  0.2597
    3ALA     HA   20   6.077  12.182  16.475 -0.4872 -1.0295  3.5183
    3ALA     CB   21   6.222  12.223  16.631 -0.1767  0.3898  0.5608
    3ALA    HB1   22   6.300  12.172  16.688 -1.9704 -2.3347  0.7563
    3ALA    HB2   23   6.245  12.323  16.594  2.5406 -0.9196 -1.6434
    3ALA    HB3   24   6.138  12.234  16.699 -0.0655  0.2105  0.7321
    3ALA      C   25   6.263  12.139  16.392 -0.5993  1.1288 -0.5764
    3ALA      O   26   6.263  12.234  16.314  0.1623 -0.3786 -0.0367
    4ALA      N   27   6.354  12.041  16.362  0.1557 -0.3820 -0.6798
    4ALA      H   28   6.355  11.955  16.415  2.2642  0.5718  0.9528
    4ALA     CA   29   6.475  12.049  16.278  0.8404  0.0844  0.0269
    4ALA     HA   30   6.442  12.086  16.181  1.5469  1.3672  0.2396
    4ALA     CB   31   6.575  12.151  16.335 -0.8261 -0.0210  0.1074
    4ALA    HB1   32   6.669  12.100  16.353 -0.8909 -1.0145 -2.0394
    4ALA    HB2   33   6.580  12.237  16.268 -0.8238 -1.4334 -1.8073
    4ALA    HB3   34   6.543  12.197  16.428 -0.6306 -1.0155  0.6777
    4ALA      C   35   6.543  11.916  16.264  0.0069 -0.1097 -0.2206
    4ALA      O   36   6.502  11.820  16.329 -0.3898  0.0380  0.4520
    5NME      N   37   6.655  11.912  16.188  0.0742  0.3523 -0.0326
    5NME      H   38   6.678  11.992  16.130 -1.1049 -0.0025 -1.0356
    5NME    CH3   39   6.739  11.801  16.187 -0.1358  0.4886  0.1605
    5NME   HH31   40   6.845  11.828  16.179 -0.6625  2.5068 -0.9739
    5NME   HH32   41   6.721  11.728  16.265 -1.3679 -0.4101 -0.9331
    5NME   HH33   42   6.704  11.738  16.106  0.0385 -2.2844  2.1350
  20.91516  20.91516  20.91516
