Protein
   42
    1ACE   HH31    1  12.465   4.441   4.961  0.3823  2.1720  0.9131
    1ACE    CH3    2  12.550   4.375   4.974 -0.5114  0.7258 -0.2522
    1ACE   HH32    3  12.526   4.282   5.027 -0.0830  2.3330  3.0355
    1ACE   HH33    4  12.635   4.418   5.027 -0.3929  0.1105  0.0870
    1ACE      C    5  12.606   4.343   4.836 -0.0232 -0.3846 -0.4834
    1ACE      O    6  12.593   4.423   4.748 -0.0735 -0.2169 -0.5396
    2ALA      N    7  12.680   4.232   4.827  0.5073 -0.3642  0.0383
    2ALA      H    8  12.691   4.173   4.909  2.4646 -0.3864 -0.1862
    2ALA     CA    9  12.755   4.198   4.707  0.2184  0.1193  0.1991
    2ALA     HA   10  12.803   4.291   4.675 -1.4073  1.4677  1.5096
    2ALA     CB   11  12.858   4.092   4.746 -0.4235  0.7249  0.5538
    2ALA    HB1   12  12.805   4.008   4.791 -3.5653  1.3665 -1.6276
    2ALA    HB2   13  12.907   4.050   4.659 -0.5998  2.0091 -0.2031
    2ALA    HB3   14  12.937   4.120   4.816 -0.6278 -1.2943  1.6710
    2ALA      C   15  12.654   4.147   4.597 -0.4836  0.2420 -0.1465
    2ALA      O   16  12.645   4.026   4.573  0.3496 -0.9512 -0.6449
    3ALA      N   17  12.574   4.238   4.544 -0.7808  0.7244  0.1820
    3ALA      H   18  12.607   4.326   4.583  3.4799 -0.7474  0.5312
    3ALA     CA   19  12.461   4.242   4.449  0.7531 -0.1027  0.1676
    3ALA     HA   20  12.376   4.228   4.514 -0.2717 -3.3013 -1.6814
    3ALA     CB   21  12.457   4.382   4.386  0.1513  0.1205  0.2074
    3ALA    HB1   22  12.550   4.410   4.335 -0.1018  0.7033  0.0456
    3ALA    HB2   23  12.374   4.390   4.316  0.6450  0.8850 -0.3130
    3ALA    HB3   24  12.426   4.452   4.464 -2.7015 -0.5544 -0.2199
    3ALA      C   25  12.430   4.130   4.351 -0.6530 -0.3127  0.7463
    3ALA      O   26  12.328   4.126   4.287 -0.7102 -0.6173  0.5926
    4ALA      N   27  12.522   4.038   4.340  0.5207  0.6290  0.1722
    4ALA      H   28  12.594   4.042   4.410  0.4039 -0.4522  0.3730
    4ALA     CA   29  12.519   3.920   4.246 -0.1416  0.4691 -0.4973
    4ALA     HA   30  12.417   3.895   4.216  0.4305 -0.1189 -2.0529
    4ALA     CB   31  12.584   3.975   4.121 -0.1007 -0.5172  0.2792
    4ALA    HB1   32  12.521   4.059   4.090  0.2688 -0.4573 -0.3348
    4ALA    HB2   33  12.686   4.008   4.140  0.3756 -1.7503 -0.0597
    4ALA    HB3   34  12.570   3.896   4.047  1.5842 -2.0542  1.5534
    4ALA      C   35  12.582   3.788   4.291 -0.6551  0.4939  0.7867
    4ALA      O   36  12.576   3.683   4.224  0.2709 -0.3838  0.6549
    5NME      N   37  12.657   3.798   4.400  0.6912  0.1220  0.1335
    5NME      H   38  12.656   3.887   4.448 -0.9908 -0.5353  1.4385
    5NME    CH3   39  12.715   3.685   4.476 -0.9408  0.2123  0.3907
    5NME   HH31   40  12.741   3.716   4.578  2.4310  0.3985 -0.4102
    5NME   HH32   41  12.644   3.604   4.466 -0.7118  0.2890 -3.5076
    5NME   HH33   42  12.807   3.643   4.434 -1.2795 -1.6823  1.4296
  20.91516  20.91516  20.91516
