Title
  129
    1AIB    CAY    1  17.033   8.393  40.384  0.3077  0.4122  0.0203
    1AIB    HY1    2  17.052   8.472  40.309  1.6674 -1.7315 -2.0528
    1AIB    HY2    3  17.002   8.303  40.326  0.4045 -0.1840  0.8681
    1AIB    HY3    4  17.120   8.352  40.440 -0.3438 -0.5933  0.3278
    1AIB     CY    5  16.936   8.429  40.495  0.5244  0.1422  0.1400
    1AIB     OY    6  16.856   8.341  40.523  0.8814 -0.6720  0.6840
    1AIB      N    7  16.936   8.557  40.534  0.6425 -1.8772 -0.5909
    1AIB     HN    8  17.029   8.591  40.526  1.7351 -4.6581 -1.0931
    1AIB     CA    9  16.826   8.642  40.573  0.3481 -0.3127  0.5503
    1AIB    CB1   10  16.891   8.780  40.615  0.2904 -1.4700  0.8436
    1AIB   HB11   11  16.811   8.837  40.667  1.8299  0.6116  1.0559
    1AIB   HB12   12  16.916   8.837  40.524  2.5129  4.1935  4.4372
    1AIB   HB13   13  16.984   8.779  40.676  2.1135  3.7325 -1.3455
    1AIB    CB2   14  16.761   8.581  40.708  0.3120 -0.2731  0.2943
    1AIB   HB21   15  16.717   8.488  40.668 -2.8068  1.0690  0.3217
    1AIB   HB22   16  16.684   8.657  40.734 -0.2165 -1.7339  3.3764
    1AIB   HB23   17  16.822   8.589  40.801 -0.2347  0.7854  0.5885
    1AIB      C   18  16.701   8.637  40.488 -0.0029 -0.9180 -0.1496
    1AIB      O   19  16.633   8.738  40.490 -0.8348  0.3618 -0.0758
    2AIB      N   20  16.677   8.540  40.406  0.4158  0.5650 -0.0296
    2AIB     HN   21  16.741   8.464  40.416 -1.0335 -1.4652 -3.8695
    2AIB     CA   22  16.547   8.517  40.348 -1.1764 -0.2884 -0.2653
    2AIB    CB1   23  16.442   8.541  40.450  1.8044  0.1418 -0.4115
    2AIB   HB11   24  16.453   8.499  40.553  3.6255 -2.5510 -1.5579
    2AIB   HB12   25  16.356   8.471  40.442 -0.0666  1.7353  3.3869
    2AIB   HB13   26  16.404   8.639  40.416 -1.1663 -2.2151 -4.9823
    2AIB    CB2   27  16.544   8.367  40.283 -0.6352  0.9332  0.0705
    2AIB   HB21   28  16.629   8.361  40.211  1.6581  3.2294  2.3066
    2AIB   HB22   29  16.458   8.351  40.215  0.5617  0.6469 -1.4232
    2AIB   HB23   30  16.561   8.291  40.362  3.9357 -0.2039 -1.7128
    2AIB      C   31  16.527   8.600  40.218 -0.3754 -0.6280 -0.7963
    2AIB      O   32  16.615   8.638  40.141 -0.2282 -1.1476  0.2953
    3AIB      N   33  16.396   8.654  40.197  0.2124 -0.4387  1.6282
    3AIB     HN   34  16.307   8.629  40.236 -1.4267  2.3648 -0.0174
    3AIB     CA   35  16.376   8.779  40.113  0.1056 -0.3319  0.8069
    3AIB    CB1   36  16.470   8.891  40.153  1.1348 -0.7334 -1.1639
    3AIB   HB11   37  16.453   8.938  40.252  1.8691  2.9044 -2.5771
    3AIB   HB12   38  16.462   8.969  40.074  1.8563  0.1627 -0.3810
    3AIB   HB13   39  16.580   8.889  40.162  1.1865  3.5651  2.6289
    3AIB    CB2   40  16.243   8.844  40.105  0.2366  1.3377 -0.2411
    3AIB   HB21   41  16.250   8.955  40.102 -1.8161  1.5458  0.8765
    3AIB   HB22   42  16.191   8.810  40.197  1.2821 -4.1773 -1.3451
    3AIB   HB23   43  16.186   8.828  40.010  2.0289  3.5101 -1.7931
    3AIB      C   44  16.409   8.738  39.973 -1.2956 -0.0104  0.1067
    3AIB      O   45  16.465   8.826  39.905  0.4695  0.5905 -0.5215
    4AIB      N   46  16.399   8.603  39.959 -0.1434 -0.1228  0.2405
    4AIB     HN   47  16.364   8.561  40.042 -1.7931 -3.1672 -1.8238
    4AIB     CA   48  16.392   8.539  39.834  1.6996  0.3127  1.0373
    4AIB    CB1   49  16.278   8.598  39.755 -0.0744  2.2849 -1.3370
    4AIB   HB11   50  16.190   8.554  39.806  0.4867  1.2063 -1.2949
    4AIB   HB12   51  16.264   8.542  39.661 -1.1580 -1.4178  0.8491
    4AIB   HB13   52  16.275   8.708  39.736  1.7903  2.2411 -2.2482
    4AIB    CB2   53  16.356   8.381  39.854  0.1845 -0.2791 -0.3053
    4AIB   HB21   54  16.331   8.323  39.763  0.2386  2.4228 -2.1359
    4AIB   HB22   55  16.278   8.370  39.932 -0.1914  1.0408 -0.4682
    4AIB   HB23   56  16.450   8.330  39.886  1.4978  1.2812 -1.4587
    4AIB      C   57  16.542   8.539  39.768  0.1420 -0.2425  0.2487
    4AIB      O   58  16.569   8.509  39.647  1.0422 -0.5524 -1.3325
    5AIB      N   59  16.651   8.575  39.840 -1.0619 -0.8492 -1.0172
    5AIB     HN   60  16.613   8.614  39.923 -3.2446 -1.3322 -1.7249
    5AIB     CA   61  16.790   8.549  39.822  0.9289 -1.2433  0.2919
    5AIB    CB1   62  16.827   8.393  39.817  1.4834  1.6995  0.3450
    5AIB   HB11   63  16.785   8.323  39.892 -2.1415  1.5021 -1.6320
    5AIB   HB12   64  16.937   8.398  39.830  1.6821 -2.9836  2.1211
    5AIB   HB13   65  16.801   8.351  39.717 -2.2677  4.8827 -0.2247
    5AIB    CB2   66  16.871   8.593  39.954 -0.8913 -0.2230  1.9419
    5AIB   HB21   67  16.850   8.702  39.966  0.3749 -0.0522  2.8211
    5AIB   HB22   68  16.980   8.577  39.939 -0.7252 -0.2358  3.0487
    5AIB   HB23   69  16.833   8.540  40.043 -0.3153 -6.3765 -0.9556
    5AIB      C   70  16.852   8.620  39.700  1.4583 -0.6511  0.5552
    5AIB      O   71  16.964   8.585  39.665 -1.4246  0.9424 -0.9199
    6AIB      N   72  16.780   8.725  39.646 -0.7328 -0.3604  0.2195
    6AIB     HN   73  16.712   8.757  39.712  3.0137  0.3683  4.1942
    6AIB     CA   74  16.817   8.821  39.535 -0.4816  1.0915  0.2801
    6AIB    CB1   75  16.969   8.874  39.544 -0.1462 -0.3659  0.5378
    6AIB   HB11   76  16.990   8.924  39.447  0.0091 -1.1108  0.1725
    6AIB   HB12   77  17.032   8.786  39.570 -3.2837 -4.4975 -3.8680
    6AIB   HB13   78  16.981   8.948  39.626 -2.8877 -2.8855  3.4559
    6AIB    CB2   79  16.698   8.913  39.512 -1.1753 -1.7625 -0.5966
    6AIB   HB21   80  16.597   8.868  39.523 -1.9045 -0.0054  0.3997
    6AIB   HB22   81  16.713   8.957  39.411 -1.3028  4.3763  1.6287
    6AIB   HB23   82  16.696   9.004  39.575 -2.9972 -1.1696 -1.4317
    6AIB      C   83  16.824   8.737  39.407 -1.1984  0.1573  1.5698
    6AIB      O   84  16.854   8.775  39.301 -0.5814 -0.0644  0.3576
    7AIB      N   85  16.798   8.598  39.422 -0.3472 -1.2633  0.1855
    7AIB     HN   86  16.790   8.555  39.512 -3.3325  3.2923  2.5340
    7AIB     CA   87  16.775   8.504  39.326 -1.3698  0.4659  1.4345
    7AIB    CB1   88  16.703   8.559  39.207  0.3506 -1.3894 -1.0315
    7AIB   HB11   89  16.605   8.610  39.224  1.7008  0.7176  1.1095
    7AIB   HB12   90  16.690   8.480  39.130  3.1623  0.2138 -3.4094
    7AIB   HB13   91  16.766   8.626  39.144 -2.5672  2.4537 -0.3127
    7AIB    CB2   92  16.706   8.387  39.385  0.8486  0.9497 -0.1918
    7AIB   HB21   93  16.732   8.365  39.490  4.4427  1.3500 -0.8994
    7AIB   HB22   94  16.716   8.294  39.325  2.1338  0.9901 -0.0747
    7AIB   HB23   95  16.597   8.409  39.392  1.2185  2.4133  5.2757
    7AIB      C   96  16.929   8.469  39.281 -0.6796  1.0761 -1.0558
    7AIB      O   97  16.959   8.440  39.164  0.7929 -0.0924 -0.0643
    8AIB      N   98  17.031   8.482  39.378 -0.8643  0.9618  0.2314
    8AIB     HN   99  17.003   8.502  39.472  0.1303 -1.8058  1.2242
    8AIB     CA  100  17.162   8.454  39.360 -0.7301 -0.1724  0.0929
    8AIB    CB1  101  17.188   8.296  39.367 -0.3057 -0.4222  0.5716
    8AIB   HB11  102  17.203   8.259  39.264 -3.6936  0.3778 -0.3539
    8AIB   HB12  103  17.108   8.250  39.428  0.6397 -0.0381  2.1761
    8AIB   HB13  104  17.278   8.285  39.432 -1.6608  1.7635  3.0642
    8AIB    CB2  105  17.219   8.518  39.481 -0.6992 -0.4747 -0.6159
    8AIB   HB21  106  17.183   8.450  39.560 -1.6947  3.4899  2.6872
    8AIB   HB22  107  17.191   8.622  39.508 -1.5519 -0.9448  0.3362
    8AIB   HB23  108  17.328   8.497  39.480 -1.5732 -6.5626 -0.7091
    8AIB      C  109  17.235   8.524  39.238  0.1612  1.0510 -0.4168
    8AIB      O  110  17.301   8.440  39.172 -0.7531 -0.9118 -0.5228
    9AIB      N  111  17.213   8.655  39.211 -0.4800 -0.3263 -1.1160
    9AIB     HN  112  17.148   8.713  39.260  1.4340  1.1347 -0.1487
    9AIB     CA  113  17.288   8.751  39.130 -0.2777  0.0310  0.4536
    9AIB    CB1  114  17.229   8.889  39.151  0.9136  0.8102 -0.0651
    9AIB   HB11  115  17.245   8.941  39.247  2.7857 -2.1750  1.4127
    9AIB   HB12  116  17.123   8.887  39.117  1.1695  2.1773 -1.1237
    9AIB   HB13  117  17.274   8.961  39.079  0.0335  0.0780 -1.3955
    9AIB    CB2  118  17.281   8.726  38.983 -0.0709 -0.3499  0.1069
    9AIB   HB21  119  17.299   8.617  38.971  6.0482 -0.2634  4.3014
    9AIB   HB22  120  17.364   8.788  38.944  0.2573  3.3894  5.6734
    9AIB   HB23  121  17.181   8.753  38.942 -0.1215 -1.7467 -0.7471
    9AIB      C  122  17.440   8.762  39.159  0.8037  0.4669 -0.3847
    9AIB      O  123  17.493   8.867  39.203 -0.5841  0.6818 -0.2899
    9AIB     NT  124  17.504   8.656  39.129 -0.8484 -1.3906  0.4529
    9AIB    HNT  125  17.446   8.576  39.117 -0.0147 -2.8873  4.7319
    9AIB    CAT  126  17.638   8.623  39.155  0.7626 -0.0840  0.5302
    9AIB    HT1  127  17.662   8.669  39.253 -0.2789  0.3884  0.5779
    9AIB    HT2  128  17.719   8.672  39.097 -0.3821 -2.7894 -3.8190
    9AIB    HT3  129  17.621   8.514  39.167 -1.8606 -0.0393 -1.5711
  42.09246  42.09246  42.09246
