Protein
   42
    1ACE   HH31    1   8.833   5.864   7.321  0.7099 -1.2324  0.0870
    1ACE    CH3    2   8.916   5.920   7.278 -0.3093 -0.0862 -0.4490
    1ACE   HH32    3   8.900   6.027   7.266  0.1523 -0.0420 -0.6594
    1ACE   HH33    4   8.934   5.889   7.176  0.6173 -0.9792 -0.0315
    1ACE      C    5   9.037   5.895   7.359 -0.0395 -0.7846 -0.5328
    1ACE      O    6   9.150   5.877   7.316  0.0301 -0.1559 -0.1562
    2ALA      N    7   9.011   5.883   7.487 -0.1302  0.3617  0.0421
    2ALA      H    8   8.913   5.894   7.511 -0.6905 -0.5802 -1.6444
    2ALA     CA    9   9.107   5.885   7.603 -0.3852  0.0219  0.9950
    2ALA     HA   10   9.200   5.927   7.566 -0.5353 -0.4972 -0.0283
    2ALA     CB   11   9.049   5.980   7.712 -0.0091 -0.2731 -0.1742
    2ALA    HB1   12   9.017   6.071   7.663 -0.9420  0.2988  1.4264
    2ALA    HB2   13   8.960   5.954   7.770  1.3837  1.3822  2.9718
    2ALA    HB3   14   9.119   5.999   7.794 -0.1765  0.6742 -0.2273
    2ALA      C   15   9.141   5.740   7.654 -0.2507 -0.3795  0.6265
    2ALA      O   16   9.093   5.692   7.753  0.5878 -0.4094 -0.0033
    3ALA      N   17   9.242   5.663   7.607  0.7341 -0.0359 -0.0578
    3ALA      H   18   9.246   5.578   7.661  0.3609 -0.0266 -0.0101
    3ALA     CA   19   9.347   5.700   7.522  0.3814  0.0506 -0.1373
    3ALA     HA   20   9.323   5.798   7.479  2.1202  1.1755  1.2610
    3ALA     CB   21   9.468   5.713   7.610 -0.1102  0.0641  0.3874
    3ALA    HB1   22   9.488   5.620   7.663  0.2117  0.7164  1.4517
    3ALA    HB2   23   9.560   5.727   7.553 -0.4321  0.5031 -0.0355
    3ALA    HB3   24   9.449   5.790   7.686  0.0965 -1.8722  2.5058
    3ALA      C   25   9.366   5.604   7.407  0.0963 -0.4012  0.1353
    3ALA      O   26   9.455   5.524   7.401 -0.3185  0.5436 -0.1154
    4ALA      N   27   9.282   5.616   7.312  0.0151 -0.4373 -0.5016
    4ALA      H   28   9.218   5.694   7.320  1.9891  1.0800  2.4886
    4ALA     CA   29   9.298   5.535   7.192 -0.0548  0.2242  0.3533
    4ALA     HA   30   9.401   5.499   7.186 -0.8641 -2.8174  2.3462
    4ALA     CB   31   9.208   5.412   7.209 -0.4230  0.1746  0.2874
    4ALA    HB1   32   9.103   5.442   7.207 -0.4575  0.0310 -0.5962
    4ALA    HB2   33   9.222   5.338   7.130 -2.5002 -1.0650  0.9869
    4ALA    HB3   34   9.241   5.371   7.304  0.9372 -1.4828 -0.8609
    4ALA      C   35   9.265   5.607   7.065  0.2918 -0.6797  0.2322
    4ALA      O   36   9.242   5.552   6.958  0.3236  0.4728  0.3290
    5NME      N   37   9.253   5.742   7.076  0.4872  0.1306  0.1306
    5NME      H   38   9.273   5.782   7.167  0.2896  1.3813 -0.3579
    5NME    CH3   39   9.225   5.833   6.970  0.5421 -0.6371  0.3254
    5NME   HH31   40   9.316   5.876   6.929 -0.0762 -0.0800 -0.4984
    5NME   HH32   41   9.174   5.782   6.888 -0.7428  0.2858  0.5261
    5NME   HH33   42   9.157   5.912   7.000  2.3832  0.3233  2.2209
  20.91516  20.91516  20.91516
