Protein
   22
    1ACE   HH31    1   4.310   3.711   6.129 -1.1273 -0.7866 -3.5697
    1ACE    CH3    2   4.380   3.628   6.120  0.3160 -0.2176  0.3134
    1ACE   HH32    3   4.465   3.625   6.187  1.1321  0.4036 -0.6591
    1ACE   HH33    4   4.417   3.624   6.017 -0.6937 -1.3715 -0.0424
    1ACE      C    5   4.313   3.500   6.160  0.4893  0.4137  0.3981
    1ACE      O    6   4.264   3.486   6.267 -0.0719 -0.3630 -0.0841
    2ALA      N    7   4.310   3.406   6.070  0.4548 -0.6293  0.9226
    2ALA      H    8   4.375   3.431   5.997 -2.7313  1.4080 -1.5716
    2ALA     CA    9   4.258   3.271   6.067 -0.9868 -0.1078  0.2837
    2ALA     HA   10   4.294   3.217   6.154  0.7759  1.3054  0.5255
    2ALA     CB   11   4.105   3.270   6.075  0.6187  0.4371  0.4432
    2ALA    HB1   12   4.069   3.303   6.172 -0.4755 -0.1047  0.2391
    2ALA    HB2   13   4.062   3.327   5.992 -1.9714 -3.3217 -1.0245
    2ALA    HB3   14   4.076   3.166   6.062  0.1375  0.6934 -0.7583
    2ALA      C   15   4.305   3.188   5.933 -1.1216 -0.9089 -0.2731
    2ALA      O   16   4.403   3.114   5.931  0.6127 -0.0259 -0.1592
    3NME      N   17   4.239   3.204   5.814  0.2071  0.1973 -0.2539
    3NME      H   18   4.150   3.250   5.826 -0.2850 -0.7347 -0.2602
    3NME    CH3   19   4.288   3.167   5.685  0.2276 -0.3885  0.4401
    3NME   HH31   20   4.349   3.244   5.638  1.1865 -0.2709  1.8177
    3NME   HH32   21   4.341   3.071   5.688  1.0616  0.0507  0.2295
    3NME   HH33   22   4.194   3.164   5.630 -2.3918  2.9081  4.2148
  10.72160  10.72160  10.72160
