Protein
   22
    1ACE   HH31    1   1.751   7.177   2.624 -0.3823  0.4245  1.1089
    1ACE    CH3    2   1.812   7.266   2.609 -0.5760  0.3972  0.1260
    1ACE   HH32    3   1.743   7.346   2.636 -0.6421 -0.3036  2.2312
    1ACE   HH33    4   1.851   7.275   2.507  1.4215 -2.2269  0.5444
    1ACE      C    5   1.930   7.271   2.700  0.1259 -0.4978  0.2169
    1ACE      O    6   2.042   7.279   2.655 -0.0005  0.0733  0.3038
    2ALA      N    7   1.910   7.278   2.833 -0.0152 -0.1075  0.4205
    2ALA      H    8   1.817   7.269   2.873 -1.6024  1.0974 -2.6436
    2ALA     CA    9   2.029   7.301   2.922  0.1615 -0.9169  0.6477
    2ALA     HA   10   2.118   7.257   2.877 -1.1788 -0.2705 -2.9309
    2ALA     CB   11   2.047   7.455   2.937 -0.6920 -0.2390 -0.4988
    2ALA    HB1   12   2.117   7.468   3.020 -2.8802  0.3161  1.3770
    2ALA    HB2   13   2.083   7.502   2.846 -0.5335  0.9036  0.1365
    2ALA    HB3   14   1.951   7.491   2.975 -0.9026 -2.4144  1.2191
    2ALA      C   15   2.007   7.231   3.060  0.8453 -0.0698 -0.1194
    2ALA      O   16   1.926   7.275   3.141 -0.0195 -0.1137  0.3332
    3NME      N   17   2.078   7.123   3.073 -0.0990  0.2316 -0.4398
    3NME      H   18   2.143   7.113   2.997 -0.2001  3.4306 -1.1122
    3NME    CH3   19   2.073   7.024   3.183 -0.7745  1.1181 -0.6222
    3NME   HH31   20   2.137   7.065   3.261  0.7031 -0.4550 -0.9391
    3NME   HH32   21   1.970   7.015   3.215 -0.8843  1.8772 -0.7406
    3NME   HH33   22   2.116   6.931   3.144  1.4731  1.5009  0.7857
  10.72160  10.72160  10.72160
