Protein
   42
    1ACE   HH31    1   7.090  11.426  10.866 -0.9464  1.7568  1.5147
    1ACE    CH3    2   7.169  11.443  10.939  0.1356  0.7282  0.6268
    1ACE   HH32    3   7.258  11.446  10.876  0.2830 -1.3733  0.6825
    1ACE   HH33    4   7.180  11.363  11.013  1.8064 -1.2760 -1.6055
    1ACE      C    5   7.151  11.570  11.008  0.1135 -0.3776  0.1916
    1ACE      O    6   7.231  11.657  10.982 -0.1103  0.1044 -0.1021
    2ALA      N    7   7.056  11.571  11.101 -0.0637 -0.1620 -0.4351
    2ALA      H    8   7.002  11.486  11.109 -1.9985  0.8073 -2.4660
    2ALA     CA    9   7.025  11.680  11.205 -0.5969 -0.4251  0.4522
    2ALA     HA   10   6.944  11.647  11.270 -3.0482  0.4496 -1.9605
    2ALA     CB   11   7.145  11.699  11.295 -0.2524  0.2393  0.3044
    2ALA    HB1   12   7.114  11.757  11.382 -0.4737  0.1617  0.2756
    2ALA    HB2   13   7.177  11.600  11.328  0.0854  1.0317  2.4886
    2ALA    HB3   14   7.220  11.762  11.248  1.1856 -0.0676  2.0626
    2ALA      C   15   6.978  11.811  11.152  0.3466 -0.1021 -1.4495
    2ALA      O   16   6.877  11.857  11.203  0.2842  0.1270  0.2752
    3ALA      N   17   7.041  11.874  11.055  0.6458 -0.9190  0.1032
    3ALA      H   18   7.125  11.829  11.022 -0.2380 -2.3181 -0.3351
    3ALA     CA   19   6.995  11.980  10.964 -0.1772  0.2786  0.4450
    3ALA     HA   20   7.004  12.080  11.008  2.0623  0.3382 -0.0506
    3ALA     CB   21   7.091  11.978  10.843  0.3760 -0.2592 -0.0413
    3ALA    HB1   22   7.050  12.049  10.771 -1.2261 -0.8814  0.2329
    3ALA    HB2   23   7.191  12.012  10.871  0.0571  0.1839  0.5787
    3ALA    HB3   24   7.085  11.883  10.789 -1.5603 -0.6288  0.7174
    3ALA      C   25   6.852  11.960  10.903 -0.0321 -1.0051 -0.2311
    3ALA      O   26   6.789  12.054  10.852  0.1083  0.1609 -0.1016
    4ALA      N   27   6.799  11.839  10.915 -0.2404 -0.1729 -0.3648
    4ALA      H   28   6.859  11.767  10.955 -1.1881 -0.5421  0.4631
    4ALA     CA   29   6.682  11.787  10.845 -0.0645 -0.3212  0.6804
    4ALA     HA   30   6.598  11.856  10.860  0.0173 -0.4256  1.7013
    4ALA     CB   31   6.713  11.773  10.692 -0.2176 -0.5913 -0.2112
    4ALA    HB1   32   6.769  11.861  10.659  0.9385 -1.5220 -0.7855
    4ALA    HB2   33   6.768  11.680  10.676 -0.8706 -1.3093  1.5038
    4ALA    HB3   34   6.627  11.767  10.626  2.0451  0.9748 -3.5500
    4ALA      C   35   6.653  11.646  10.907 -0.1222 -0.3286  0.2114
    4ALA      O   36   6.741  11.578  10.958  0.1114  0.1847 -0.5216
    5NME      N   37   6.524  11.610  10.895 -0.2954  0.6057  0.7017
    5NME      H   38   6.466  11.673  10.842  1.0533  0.2829 -1.2916
    5NME    CH3   39   6.474  11.480  10.947  0.3665  0.4183  0.4498
    5NME   HH31   40   6.550  11.432  11.008  1.3303  0.2833 -0.8139
    5NME   HH32   41   6.393  11.502  11.017  0.3915  0.9258  0.3221
    5NME   HH33   42   6.452  11.413  10.864  2.2335 -0.3797  0.5730
  20.91516  20.91516  20.91516
