Protein
   22
    1ACE   HH31    1   1.274   5.801   6.808 -1.0024 -1.7669 -0.2336
    1ACE    CH3    2   1.365   5.779   6.863 -0.2262  0.4981 -0.5278
    1ACE   HH32    3   1.358   5.821   6.963 -0.1274 -0.1909 -0.2251
    1ACE   HH33    4   1.462   5.805   6.819  0.1736  1.2334  0.7592
    1ACE      C    5   1.366   5.626   6.886  0.2883  0.0318 -0.5471
    1ACE      O    6   1.315   5.581   6.990 -0.0855 -0.5762 -0.0779
    2ALA      N    7   1.423   5.551   6.791  0.7665 -0.1979  0.1182
    2ALA      H    8   1.476   5.605   6.724 -0.1578  0.8450  0.2128
    2ALA     CA    9   1.406   5.404   6.770  0.2296  0.4564 -0.3385
    2ALA     HA   10   1.458   5.346   6.845  1.8910  1.3664 -0.7436
    2ALA     CB   11   1.261   5.368   6.773 -0.4596  0.0103 -0.4336
    2ALA    HB1   12   1.248   5.262   6.754  0.4300 -0.5032  1.5797
    2ALA    HB2   13   1.225   5.382   6.875  0.6684 -2.1037  0.3148
    2ALA    HB3   14   1.208   5.436   6.706  0.0832 -0.5282 -1.4122
    2ALA      C   15   1.462   5.365   6.632 -0.2783 -0.3035  0.0875
    2ALA      O   16   1.400   5.372   6.527 -0.1438  0.2892 -0.2104
    3NME      N   17   1.587   5.318   6.633 -0.3429 -0.5235 -0.9835
    3NME      H   18   1.632   5.309   6.723  0.3976  0.0064 -1.2799
    3NME    CH3   19   1.656   5.257   6.515 -0.5128  0.3828 -0.3648
    3NME   HH31   20   1.706   5.167   6.552  0.1215  0.3879 -1.1995
    3NME   HH32   21   1.583   5.226   6.440  0.2546  0.0815 -1.0082
    3NME   HH33   22   1.733   5.324   6.478  0.4873 -0.5343 -0.0001
  10.72160  10.72160  10.72160
