Protein
   32
    1ACE   HH31    1  15.294  13.801  11.135 -0.0866  0.4022 -0.4814
    1ACE    CH3    2  15.269  13.726  11.061 -0.2733 -0.3705  0.3475
    1ACE   HH32    3  15.246  13.627  11.103 -0.7414 -0.4608 -0.0983
    1ACE   HH33    4  15.359  13.714  11.000 -1.3139 -1.7995 -1.0132
    1ACE      C    5  15.149  13.774  10.991  0.6569  0.9871  0.4982
    1ACE      O    6  15.091  13.873  11.030  0.0079  0.4685 -0.3700
    2ALA      N    7  15.111  13.705  10.882 -0.0963 -0.3527  0.0313
    2ALA      H    8  15.167  13.623  10.863  0.5708  0.6240 -2.9266
    2ALA     CA    9  14.990  13.723  10.808 -0.2439  0.1370  0.6580
    2ALA     HA   10  14.998  13.821  10.761 -1.0415 -1.0681 -2.2164
    2ALA     CB   11  15.000  13.636  10.685 -0.0559  0.7753 -0.1675
    2ALA    HB1   12  15.079  13.663  10.616  0.8256 -1.3245 -0.0796
    2ALA    HB2   13  15.005  13.529  10.707 -0.1916  0.4466 -1.5876
    2ALA    HB3   14  14.910  13.649  10.626 -0.2348  2.0048  0.3320
    2ALA      C   15  14.858  13.710  10.881 -0.3365  0.6324  0.7972
    2ALA      O   16  14.804  13.600  10.874 -0.2194 -0.0388 -0.0341
    3ALA      N   17  14.803  13.825  10.920 -0.3528  0.0077 -0.1967
    3ALA      H   18  14.872  13.899  10.919 -2.1791  1.8118 -0.4404
    3ALA     CA   19  14.675  13.852  10.988  0.4619  0.1374  0.0812
    3ALA     HA   20  14.676  13.956  11.022 -1.2771  0.8794 -1.8780
    3ALA     CB   21  14.563  13.842  10.877 -0.1404  0.3544  0.5450
    3ALA    HB1   22  14.579  13.912  10.795 -1.8224 -0.5329 -0.6060
    3ALA    HB2   23  14.555  13.742  10.835 -0.7609  0.4264  0.4692
    3ALA    HB3   24  14.463  13.862  10.915 -0.8687 -0.3107 -0.9355
    3ALA      C   25  14.641  13.767  11.116 -0.4624 -0.7990  0.3117
    3ALA      O   26  14.569  13.814  11.202  0.3174  0.4771 -0.7447
    4NME      N   27  14.714  13.650  11.132  0.2995  0.2039  0.2467
    4NME      H   28  14.794  13.634  11.072  1.2167  1.7212  1.0126
    4NME    CH3   29  14.695  13.563  11.250 -0.2845 -0.2774  0.2241
    4NME   HH31   30  14.759  13.475  11.242  1.3572  1.0160 -1.9131
    4NME   HH32   31  14.727  13.612  11.342  0.1010 -0.6008  0.2628
    4NME   HH33   32  14.587  13.546  11.255 -0.5989  1.3356 -0.2797
  20.99041  20.99041  20.99041
