Protein
   32
    1ACE   HH31    1  12.398   9.904   8.974  2.4284 -0.5607  1.1900
    1ACE    CH3    2  12.339   9.910   9.065 -0.4924  0.0919 -0.6263
    1ACE   HH32    3  12.232   9.891   9.054 -1.1519  3.4393 -0.7944
    1ACE   HH33    4  12.338  10.010   9.108 -3.2721  0.3990 -1.1783
    1ACE      C    5  12.401   9.811   9.161 -0.5279  0.1138 -0.2874
    1ACE      O    6  12.490   9.847   9.239  0.3145  0.2758  0.3184
    2ALA      N    7  12.358   9.684   9.141 -0.2298  0.4222 -0.6130
    2ALA      H    8  12.293   9.668   9.066  0.9656 -0.1171 -1.5675
    2ALA     CA    9  12.415   9.567   9.206  0.1219  0.5570 -0.1282
    2ALA     HA   10  12.508   9.593   9.258 -0.4010  2.0769  0.1049
    2ALA     CB   11  12.321   9.495   9.308  0.1600 -0.1903  0.2400
    2ALA    HB1   12  12.305   9.553   9.398 -1.0093 -2.1037  1.3415
    2ALA    HB2   13  12.223   9.482   9.260 -0.2231  2.3820  0.2074
    2ALA    HB3   14  12.353   9.395   9.337 -0.6668 -0.2591  0.9556
    2ALA      C   15  12.465   9.468   9.100  0.1488  0.2210 -1.1514
    2ALA      O   16  12.395   9.452   9.002  0.2952  0.1722  0.1065
    3ALA      N   17  12.575   9.399   9.124 -0.9193 -0.4648 -0.0514
    3ALA      H   18  12.636   9.419   9.203  0.7992 -1.3124 -1.1092
    3ALA     CA   19  12.623   9.287   9.054 -1.3530  0.1201  0.0311
    3ALA     HA   20  12.560   9.272   8.965 -2.6229 -0.0781  0.9298
    3ALA     CB   21  12.764   9.323   8.995  0.5825 -0.2786 -0.1323
    3ALA    HB1   22  12.791   9.242   8.927 -0.3529 -1.9609  1.3630
    3ALA    HB2   23  12.760   9.421   8.949  2.8834 -0.6597 -1.2497
    3ALA    HB3   24  12.837   9.334   9.075  0.7226 -0.8818 -0.1669
    3ALA      C   25  12.626   9.158   9.139  0.7702 -0.0738  0.0579
    3ALA      O   26  12.583   9.154   9.253  0.2058 -0.2110  0.3645
    4NME      N   27  12.707   9.067   9.086  0.4582  0.0595 -0.1158
    4NME      H   28  12.757   9.090   9.002  2.8798 -0.8212  0.9871
    4NME    CH3   29  12.713   8.924   9.135  0.4758 -0.1364 -0.3893
    4NME   HH31   30  12.725   8.855   9.052 -0.1062  1.2150 -1.6552
    4NME   HH32   31  12.801   8.911   9.199 -1.3269  0.4900  2.4792
    4NME   HH33   32  12.626   8.893   9.193  0.3156 -0.2734 -0.7038
  20.99041  20.99041  20.99041
