Protein
   42
    1ACE   HH31    1  10.084   8.529  12.855 -0.2256 -0.8208 -0.4944
    1ACE    CH3    2  10.128   8.584  12.772 -0.2059 -0.7074 -0.4075
    1ACE   HH32    3  10.067   8.556  12.686 -0.2508  1.8156 -1.2579
    1ACE   HH33    4  10.230   8.549  12.761 -0.4678 -1.4861 -0.4625
    1ACE      C    5  10.111   8.733  12.808  0.6722  0.2203  0.2404
    1ACE      O    6  10.148   8.821  12.730 -0.7022 -0.3097  0.6453
    2ALA      N    7  10.049   8.761  12.918 -0.5987  0.3042 -0.5322
    2ALA      H    8  10.029   8.684  12.980  2.3895  1.2403  1.9111
    2ALA     CA    9  10.031   8.888  12.980 -0.1352  0.3785  0.2671
    2ALA     HA   10   9.998   8.867  13.082 -0.5089  0.8973  0.2523
    2ALA     CB   11  10.161   8.975  12.997 -0.7669  0.0407  0.7017
    2ALA    HB1   12  10.199   9.013  12.902 -0.3942 -0.8608  0.4717
    2ALA    HB2   13  10.132   9.064  13.053 -1.4428 -0.4496  1.1589
    2ALA    HB3   14  10.234   8.913  13.050 -0.2573 -1.1165 -1.2833
    2ALA      C   15   9.913   8.967  12.918 -0.2029  0.1205  0.2294
    2ALA      O   16   9.825   9.021  12.990 -0.3265 -0.3524  0.3195
    3ALA      N   17   9.904   8.972  12.785  0.0140 -0.8004  0.0759
    3ALA      H   18   9.981   8.936  12.731  0.5709 -0.4706  0.6196
    3ALA     CA   19   9.795   9.030  12.706 -0.1428  0.2772  0.3993
    3ALA     HA   20   9.701   8.980  12.729 -0.5804  0.4218 -0.9768
    3ALA     CB   21   9.792   9.179  12.732  0.1279  0.0898 -0.0154
    3ALA    HB1   22   9.778   9.202  12.837  2.0743  1.8690 -0.0828
    3ALA    HB2   23   9.892   9.209  12.700  0.1978  0.7791  0.8198
    3ALA    HB3   24   9.702   9.216  12.684 -0.8187 -3.1397 -1.0042
    3ALA      C   25   9.827   9.009  12.549  0.7914  0.1433  0.0797
    3ALA      O   26   9.732   9.026  12.469 -0.3875  0.3862  0.6657
    4ALA      N   27   9.948   8.979  12.507 -0.4292 -0.2694  0.4538
    4ALA      H   28  10.026   8.972  12.570 -0.2899  1.2083  0.4775
    4ALA     CA   29   9.999   8.957  12.373  0.2321 -0.6013 -0.1275
    4ALA     HA   30   9.988   9.054  12.325 -2.0925  0.0232  1.4750
    4ALA     CB   31  10.153   8.923  12.392  0.8203  0.1582  0.6874
    4ALA    HB1   32  10.191   8.898  12.293 -0.3421  0.2705  0.1998
    4ALA    HB2   33  10.217   9.002  12.432  0.9116  1.6586 -2.2103
    4ALA    HB3   34  10.168   8.833  12.452 -0.3747 -0.7018 -0.2735
    4ALA      C   35   9.932   8.865  12.272 -0.0154 -0.8094  0.5913
    4ALA      O   36   9.998   8.838  12.170  0.5499 -0.1901 -1.0587
    5NME      N   37   9.807   8.816  12.302 -0.0619 -0.7156  0.3210
    5NME      H   38   9.755   8.855  12.379 -2.6235  0.0669 -1.6789
    5NME    CH3   39   9.741   8.739  12.197 -0.1734  0.3103 -0.2235
    5NME   HH31   40   9.656   8.693  12.248  0.5422  0.2427  0.9593
    5NME   HH32   41   9.702   8.800  12.116  1.9559  0.5531 -1.1231
    5NME   HH33   42   9.809   8.665  12.156  0.6033  1.6472 -1.4422
  20.91516  20.91516  20.91516
