Protein
   42
    1ACE   HH31    1  10.284   9.179  14.121  0.2887 -1.9356  0.8737
    1ACE    CH3    2  10.267   9.123  14.029  0.2023 -0.8173  0.1866
    1ACE   HH32    3  10.270   9.198  13.950  0.5511  0.5888  1.4934
    1ACE   HH33    4  10.172   9.069  14.028  0.5365 -1.4344 -1.3333
    1ACE      C    5  10.362   9.009  14.014 -0.2622  0.2037  0.3734
    1ACE      O    6  10.376   8.930  14.105 -0.5023  0.4808  0.2479
    2ALA      N    7  10.442   9.012  13.910 -0.2685 -0.1666 -0.2382
    2ALA      H    8  10.432   9.100  13.863  1.7558  0.5524  0.5635
    2ALA     CA    9  10.548   8.922  13.854  0.9136 -0.1983 -0.0636
    2ALA     HA   10  10.576   8.955  13.754  0.2354  2.2333  0.4726
    2ALA     CB   11  10.683   8.943  13.932  0.7984  0.9671  0.4667
    2ALA    HB1   12  10.662   8.905  14.032 -0.6774 -2.2219 -0.9158
    2ALA    HB2   13  10.767   8.887  13.893 -0.2993 -0.6081  0.2474
    2ALA    HB3   14  10.689   9.052  13.935 -0.2558  1.0305  1.0031
    2ALA      C   15  10.519   8.776  13.840 -0.3213 -0.3820  0.4054
    2ALA      O   16  10.560   8.719  13.738 -0.2659  0.2104  0.9045
    3ALA      N   17  10.464   8.717  13.944  0.0320  1.0175  0.0884
    3ALA      H   18  10.441   8.779  14.020  2.9251  0.1338  1.8642
    3ALA     CA   19  10.412   8.583  13.975  0.7319  0.1345 -0.5530
    3ALA     HA   20  10.449   8.553  14.073  2.5033 -0.4831 -1.3559
    3ALA     CB   21  10.261   8.597  13.993 -0.1173 -0.7111 -0.7387
    3ALA    HB1   22  10.220   8.507  14.040  0.6169  0.3045  2.0087
    3ALA    HB2   23  10.240   8.671  14.070  1.3001 -1.5628  0.5102
    3ALA    HB3   24  10.208   8.626  13.902  1.6216  2.0068 -0.9749
    3ALA      C   25  10.442   8.448  13.897 -0.0223 -0.4443 -0.4865
    3ALA      O   26  10.429   8.337  13.950 -0.3916  0.2956 -0.3772
    4ALA      N   27  10.489   8.462  13.771 -0.2482 -0.3356 -0.1272
    4ALA      H   28  10.502   8.556  13.737  1.1526 -0.4508  0.0161
    4ALA     CA   29  10.494   8.352  13.672 -0.2271 -0.3152  0.0528
    4ALA     HA   30  10.529   8.271  13.737  0.0740 -0.0428  0.2328
    4ALA     CB   31  10.358   8.344  13.611  0.9640  0.5441  0.6896
    4ALA    HB1   32  10.358   8.422  13.535  0.5537 -0.6478 -0.5866
    4ALA    HB2   33  10.338   8.250  13.560 -0.3928  1.5095 -0.6410
    4ALA    HB3   34  10.275   8.359  13.680 -1.4441  0.0317 -1.9475
    4ALA      C   35  10.609   8.370  13.565 -0.3907  0.2462 -0.4128
    4ALA      O   36  10.653   8.268  13.517 -0.6630  0.4435  0.4719
    5NME      N   37  10.658   8.494  13.532  1.0929 -0.5379 -0.1103
    5NME      H   38  10.626   8.576  13.582  0.4933 -1.2288  0.6819
    5NME    CH3   39  10.739   8.528  13.416  0.4294  0.2680  0.3692
    5NME   HH31   40  10.678   8.517  13.326 -2.4661 -0.2438  2.2462
    5NME   HH32   41  10.785   8.625  13.433 -0.3036  0.7074 -0.1044
    5NME   HH33   42  10.822   8.457  13.408 -0.7693 -1.1190 -0.3811
  20.91516  20.91516  20.91516
