Protein
   42
    1ACE   HH31    1  10.643   4.044  15.042 -1.5916 -4.2938  3.4437
    1ACE    CH3    2  10.694   4.104  15.118  0.0882 -0.5731 -0.2473
    1ACE   HH32    3  10.784   4.051  15.150  1.5953  1.6298 -0.6446
    1ACE   HH33    4  10.619   4.127  15.194  0.3370 -0.1962 -0.1162
    1ACE      C    5  10.738   4.230  15.054 -0.1238  0.5835  0.4580
    1ACE      O    6  10.735   4.239  14.934 -0.4299  0.8717  0.4129
    2ALA      N    7  10.766   4.330  15.133 -0.4099 -0.0310  0.7268
    2ALA      H    8  10.772   4.307  15.231  0.0488  0.5423  0.8360
    2ALA     CA    9  10.819   4.458  15.088  0.7778 -0.7351 -0.5432
    2ALA     HA   10  10.743   4.509  15.030  0.7864  1.5837  1.3450
    2ALA     CB   11  10.851   4.543  15.214  0.3739 -0.1259 -0.2093
    2ALA    HB1   12  10.860   4.648  15.186 -2.8244  0.4161  0.3966
    2ALA    HB2   13  10.766   4.539  15.283  0.4129 -0.3484 -0.1740
    2ALA    HB3   14  10.950   4.515  15.249  0.7403 -3.7259 -3.5166
    2ALA      C   15  10.943   4.448  15.004 -0.1603 -0.4394  0.4182
    2ALA      O   16  11.030   4.361  15.031  1.1600  0.4096 -0.2147
    3ALA      N   17  10.966   4.531  14.903 -0.9881 -0.2716 -0.1016
    3ALA      H   18  11.062   4.525  14.871 -2.0820 -0.6138 -3.6067
    3ALA     CA   19  10.888   4.612  14.819  0.1674 -0.0156  0.2395
    3ALA     HA   20  10.906   4.716  14.845 -0.6740  0.2406 -0.1855
    3ALA     CB   21  10.944   4.599  14.672 -0.2618 -0.3073  0.1835
    3ALA    HB1   22  10.935   4.497  14.634 -2.5284 -0.5313  1.2254
    3ALA    HB2   23  10.884   4.659  14.604  0.8426 -0.7734 -1.2467
    3ALA    HB3   24  11.043   4.644  14.662 -0.0511 -0.3467  1.8842
    3ALA      C   25  10.734   4.602  14.815  0.3890  0.6314 -0.6444
    3ALA      O   26  10.667   4.696  14.849 -0.7862 -0.2044 -0.1584
    4ALA      N   27  10.675   4.489  14.782 -0.5871  0.0721 -0.2563
    4ALA      H   28  10.737   4.409  14.780  0.7241  1.0503 -0.1824
    4ALA     CA   29  10.543   4.445  14.749  0.5820 -0.1721  0.0179
    4ALA     HA   30  10.502   4.392  14.835 -0.7757  1.9720  0.7611
    4ALA     CB   31  10.456   4.565  14.712  0.3146  0.0170 -0.1762
    4ALA    HB1   32  10.357   4.536  14.677  0.3352  0.8340 -0.9357
    4ALA    HB2   33  10.439   4.636  14.793 -3.0592  2.5243 -2.7839
    4ALA    HB3   34  10.499   4.626  14.633 -0.0956  1.4026  0.6437
    4ALA      C   35  10.539   4.335  14.637  0.4110 -0.1555 -0.5454
    4ALA      O   36  10.463   4.347  14.539 -0.0441  0.3647 -0.6918
    5NME      N   37  10.622   4.236  14.643  0.5281  0.0105  0.4148
    5NME      H   38  10.675   4.221  14.727  0.4192  0.0183  0.4847
    5NME    CH3   39  10.616   4.142  14.534 -0.8363 -0.0113  0.1164
    5NME   HH31   40  10.525   4.083  14.537 -1.3236  0.7550  0.9926
    5NME   HH32   41  10.622   4.193  14.438 -2.9231  0.0138 -0.0572
    5NME   HH33   42  10.708   4.086  14.551  0.7946  2.0097 -1.5183
  20.91516  20.91516  20.91516
