Protein
   32
    1ACE   HH31    1   9.267  15.877   5.076 -0.0503  0.4634 -0.1341
    1ACE    CH3    2   9.359  15.818   5.075 -0.2975  0.0406  0.5868
    1ACE   HH32    3   9.383  15.785   5.176  0.0774 -0.3096  0.3855
    1ACE   HH33    4   9.439  15.874   5.028  1.9270 -2.1774  1.4965
    1ACE      C    5   9.333  15.692   4.998  0.2090 -0.4916  0.8456
    1ACE      O    6   9.237  15.680   4.923 -0.4544 -0.0820  0.8124
    2ALA      N    7   9.421  15.590   5.011  0.0170 -0.3508 -0.1417
    2ALA      H    8   9.500  15.615   5.068  0.3486 -0.5503 -0.5131
    2ALA     CA    9   9.407  15.453   4.971  0.3983  0.1353 -0.2251
    2ALA     HA   10   9.449  15.432   4.873  1.4527 -1.9477  0.6140
    2ALA     CB   11   9.501  15.361   5.057  0.2169 -0.4280  0.5388
    2ALA    HB1   12   9.472  15.370   5.161  0.2518  2.7384  0.3547
    2ALA    HB2   13   9.491  15.259   5.019 -0.1150  0.6089 -2.4040
    2ALA    HB3   14   9.604  15.391   5.035 -0.7788  2.1396 -1.1153
    2ALA      C   15   9.255  15.404   4.968 -0.1429 -0.3819 -0.2576
    2ALA      O   16   9.213  15.353   5.070  0.2065  0.4691  0.7062
    3ALA      N   17   9.179  15.416   4.857 -0.2296 -0.2253  0.2373
    3ALA      H   18   9.227  15.468   4.785 -1.6196  1.1436  0.2740
    3ALA     CA   19   9.041  15.377   4.843 -0.6838 -0.1583  0.0998
    3ALA     HA   20   9.006  15.422   4.750 -0.8299 -0.6497 -0.0962
    3ALA     CB   21   9.037  15.220   4.830 -0.3510 -0.7541  0.0906
    3ALA    HB1   22   8.935  15.182   4.833 -1.4930  2.0848  0.7159
    3ALA    HB2   23   9.091  15.189   4.741 -0.1777 -1.8948  0.5948
    3ALA    HB3   24   9.071  15.174   4.922 -0.0048 -0.8298 -0.0719
    3ALA      C   25   8.941  15.442   4.948 -0.1547  0.1077  0.6582
    3ALA      O   26   8.839  15.383   4.991 -0.4514  0.2773  0.3114
    4NME      N   27   8.953  15.570   4.976  0.3342  0.0121  0.2173
    4NME      H   28   9.019  15.623   4.921  0.4010 -0.5741 -0.2769
    4NME    CH3   29   8.874  15.652   5.072 -0.5590  0.1395 -0.0179
    4NME   HH31   30   8.920  15.749   5.090 -0.1452 -0.1751  0.6873
    4NME   HH32   31   8.768  15.660   5.048 -0.6920  0.4969  0.6617
    4NME   HH33   32   8.874  15.605   5.170 -1.8277  1.9177  0.8926
  20.99041  20.99041  20.99041
