Protein
   42
    1ACE   HH31    1   7.589   7.376  10.958  0.6607 -1.8914  0.0252
    1ACE    CH3    2   7.573   7.402  10.853 -0.3443 -0.9260  0.3955
    1ACE   HH32    3   7.644   7.335  10.804  0.7493 -0.8450  1.8022
    1ACE   HH33    4   7.593   7.505  10.825  1.6190 -0.7164  2.2660
    1ACE      C    5   7.437   7.349  10.807  0.1042  0.2945 -0.5719
    1ACE      O    6   7.418   7.236  10.756  0.1380 -0.2875  0.0047
    2ALA      N    7   7.341   7.435  10.825 -0.9487 -0.1673  0.8770
    2ALA      H    8   7.370   7.520  10.870 -2.1435  0.6607  0.1220
    2ALA     CA    9   7.202   7.405  10.795  0.2148 -0.0842  0.5160
    2ALA     HA   10   7.160   7.334  10.867 -0.2259 -0.3296  0.0301
    2ALA     CB   11   7.140   7.542  10.821 -0.0103  1.0818  0.1870
    2ALA    HB1   12   7.181   7.620  10.757 -2.9766  3.1079  0.5265
    2ALA    HB2   13   7.034   7.535  10.798  0.6872 -0.2216 -2.9276
    2ALA    HB3   14   7.154   7.574  10.925 -1.3723  1.5190  0.2587
    2ALA      C   15   7.178   7.344  10.650 -0.4536 -0.2349 -0.1068
    2ALA      O   16   7.065   7.300  10.625 -0.1653 -0.6719  0.3709
    3ALA      N   17   7.271   7.340  10.556  1.0656  0.1711 -0.1160
    3ALA      H   18   7.366   7.349  10.589  1.7242 -2.6556 -0.9656
    3ALA     CA   19   7.270   7.263  10.432  0.4565  0.1075  0.0243
    3ALA     HA   20   7.210   7.322  10.363 -0.8933 -1.7004 -0.4293
    3ALA     CB   21   7.421   7.260  10.388  0.8192  0.4154 -0.5999
    3ALA    HB1   22   7.467   7.194  10.461 -2.3028 -2.4763 -1.0080
    3ALA    HB2   23   7.420   7.211  10.291 -0.4419 -0.3847 -0.1896
    3ALA    HB3   24   7.475   7.355  10.388  2.1682 -0.2987  1.1043
    3ALA      C   25   7.199   7.122  10.438 -0.7361  0.0599  0.1635
    3ALA      O   26   7.132   7.084  10.343 -0.3178  0.0413 -0.4299
    4ALA      N   27   7.223   7.050  10.550  0.3824  0.1494  0.7011
    4ALA      H   28   7.289   7.088  10.617  0.8090  0.8814 -0.1107
    4ALA     CA   29   7.148   6.927  10.601 -0.2579  0.4301  0.4011
    4ALA     HA   30   7.200   6.841  10.560 -0.8596  0.1692  0.1693
    4ALA     CB   31   7.155   6.929  10.753 -0.0528 -1.0486  1.2362
    4ALA    HB1   32   7.257   6.954  10.782  0.0779 -0.6475  0.4435
    4ALA    HB2   33   7.089   7.011  10.782 -0.6281 -0.0193 -2.4760
    4ALA    HB3   34   7.121   6.837  10.802  1.7944 -1.8320  1.1221
    4ALA      C   35   6.996   6.910  10.554 -0.7763 -0.0742  0.0943
    4ALA      O   36   6.941   6.799  10.553  0.4482 -0.5575 -0.6659
    5NME      N   37   6.929   7.024  10.537 -0.4846 -0.2579  0.4265
    5NME      H   38   6.981   7.109  10.550 -0.8988  0.2121 -0.8333
    5NME    CH3   39   6.789   7.044  10.510  0.0287  0.5600 -0.2411
    5NME   HH31   40   6.753   6.979  10.431 -1.0128 -0.0455  0.7159
    5NME   HH32   41   6.734   7.024  10.602  1.5076 -2.3142  0.1543
    5NME   HH33   42   6.780   7.149  10.482 -2.2294  0.8322  1.2877
  20.91516  20.91516  20.91516
