Protein
   32
    1ACE   HH31    1  10.834   7.954   9.327 -2.8349  1.1291  1.6534
    1ACE    CH3    2  10.845   8.059   9.300  0.5715  0.3885 -0.4101
    1ACE   HH32    3  10.880   8.086   9.200 -0.3247 -0.2249 -0.9015
    1ACE   HH33    4  10.915   8.110   9.366  1.1234  1.3307 -1.6628
    1ACE      C    5  10.712   8.137   9.331 -0.2823 -0.8738 -0.3084
    1ACE      O    6  10.702   8.210   9.433  0.2570 -0.1246 -0.5528
    2ALA      N    7  10.613   8.145   9.253  0.4259 -0.4792  0.4648
    2ALA      H    8  10.610   8.093   9.167 -1.5761  2.6090 -1.5750
    2ALA     CA    9  10.485   8.212   9.273 -0.3022 -0.5525  0.1599
    2ALA     HA   10  10.496   8.321   9.276  1.5245 -0.6157 -1.7777
    2ALA     CB   11  10.393   8.179   9.152 -0.2212  0.4461  0.6361
    2ALA    HB1   12  10.383   8.071   9.155 -0.5214  0.4898  1.4257
    2ALA    HB2   13  10.300   8.235   9.166 -0.7397 -0.2797  0.1670
    2ALA    HB3   14  10.439   8.208   9.058  0.3466 -0.8387  0.5013
    2ALA      C   15  10.417   8.173   9.408 -0.0830 -0.2327 -0.4126
    2ALA      O   16  10.403   8.056   9.444 -0.3980  0.1054  0.7388
    3ALA      N   17  10.359   8.277   9.478  0.0425  0.0972 -0.2356
    3ALA      H   18  10.359   8.373   9.447 -0.5548 -0.1161 -0.9460
    3ALA     CA   19  10.291   8.245   9.603 -0.1989 -0.8358  0.7837
    3ALA     HA   20  10.339   8.159   9.650 -0.2065  0.3148  3.0089
    3ALA     CB   21  10.305   8.362   9.696 -0.2426 -0.6166  0.6443
    3ALA    HB1   22  10.405   8.404   9.692 -0.0177 -1.1232  0.9893
    3ALA    HB2   23  10.234   8.442   9.673 -1.7569 -2.2824 -0.6465
    3ALA    HB3   24  10.284   8.328   9.798  1.9997 -1.2518  0.9398
    3ALA      C   25  10.145   8.200   9.580  0.6008  0.0858  0.0064
    3ALA      O   26  10.083   8.231   9.480  0.0792 -0.4421 -0.5516
    4NME      N   27  10.081   8.146   9.687 -0.9528 -0.0921 -0.5876
    4NME      H   28  10.135   8.111   9.765 -1.1179  0.9385  0.0102
    4NME    CH3   29   9.941   8.121   9.694  0.0512 -0.1583 -0.1937
    4NME   HH31   30   9.913   8.066   9.604  2.1237  0.6574 -1.4181
    4NME   HH32   31   9.924   8.068   9.788  0.2671 -0.6639 -0.4319
    4NME   HH33   32   9.892   8.218   9.696  2.2090  0.9859  0.7362
  20.99041  20.99041  20.99041
