Protein
   42
    1ACE   HH31    1   7.918  10.546   9.798 -1.8908 -0.2090 -0.0284
    1ACE    CH3    2   7.898  10.552   9.905  0.0352  0.3991  0.3332
    1ACE   HH32    3   7.805  10.608   9.912 -1.1268 -1.5288  1.2488
    1ACE   HH33    4   7.972  10.609   9.961 -0.0931  0.7769  0.1228
    1ACE      C    5   7.887  10.416   9.962  0.9101  0.2056  0.0581
    1ACE      O    6   7.811  10.402  10.056 -0.1269 -0.1653 -0.8955
    2ALA      N    7   7.963  10.328   9.895  0.3757  0.6988  0.3847
    2ALA      H    8   8.031  10.353   9.825  1.9709 -3.2423  0.2461
    2ALA     CA    9   7.957  10.184   9.917 -0.6088  0.1139  0.8165
    2ALA     HA   10   7.902  10.168  10.009 -0.5283  0.1163  0.8653
    2ALA     CB   11   7.889  10.113   9.798 -0.1947 -0.1839 -0.2822
    2ALA    HB1   12   7.955  10.108   9.711  1.9402  0.1603  1.2582
    2ALA    HB2   13   7.865  10.008   9.819 -2.6142  0.0768 -1.3646
    2ALA    HB3   14   7.792  10.156   9.772 -0.9857 -1.4577  0.4118
    2ALA      C   15   8.100  10.130   9.928  0.1669  0.1943 -0.6816
    2ALA      O   16   8.185  10.162   9.849 -0.1825 -0.0946  0.2456
    3ALA      N   17   8.132  10.047  10.028  0.0102 -0.2539 -0.6455
    3ALA      H   18   8.227  10.014  10.034  0.6888  1.8753  2.0804
    3ALA     CA   19   8.065  10.026  10.159  0.3466 -0.3184  0.1993
    3ALA     HA   20   7.977   9.967  10.134  0.6260 -0.0408 -1.5946
    3ALA     CB   21   8.150   9.925  10.241 -0.2709 -0.6453 -0.8919
    3ALA    HB1   22   8.122   9.933  10.345 -0.5630 -2.4710 -0.7920
    3ALA    HB2   23   8.128   9.824  10.204 -1.1307 -0.4595 -0.9227
    3ALA    HB3   24   8.257   9.943  10.230 -0.2117 -0.9222 -0.8015
    3ALA      C   25   8.018  10.157  10.238  0.2836  0.7535  0.0846
    3ALA      O   26   8.083  10.260  10.233  0.5641 -0.9560  0.6640
    4ALA      N   27   7.912  10.147  10.319 -0.1403  0.5955  0.4379
    4ALA      H   28   7.860  10.060  10.317  0.3154  0.2875  1.4817
    4ALA     CA   29   7.854  10.252  10.400  0.1538  0.6498  0.4698
    4ALA     HA   30   7.868  10.344  10.343  1.2835 -0.6030 -1.3834
    4ALA     CB   31   7.700  10.236  10.417  0.6366 -0.8864 -0.1946
    4ALA    HB1   32   7.691  10.162  10.497  3.6828 -1.2842 -0.1170
    4ALA    HB2   33   7.648  10.327  10.444 -1.8492 -1.9949 -0.9149
    4ALA    HB3   34   7.651  10.200  10.326 -0.0468  0.9640 -0.5941
    4ALA      C   35   7.925  10.268  10.539  0.3713 -0.5715 -0.0797
    4ALA      O   36   7.936  10.167  10.614 -0.0289 -0.2593 -0.3354
    5NME      N   37   7.976  10.393  10.571 -0.7688  0.7387  0.8743
    5NME      H   38   7.975  10.457  10.493 -0.4974 -0.8399 -0.4528
    5NME    CH3   39   8.028  10.429  10.701  0.6515 -0.3943 -0.1314
    5NME   HH31   40   7.940  10.458  10.757 -1.4369 -2.8892 -1.8939
    5NME   HH32   41   8.068  10.341  10.752  1.2482 -0.0051  0.0845
    5NME   HH33   42   8.101  10.510  10.696 -0.8718  0.9764 -1.5935
  20.91516  20.91516  20.91516
