Protein
   42
    1ACE   HH31    1  11.859   9.811   6.474  1.2344  1.5198  1.2874
    1ACE    CH3    2  11.921   9.838   6.388 -0.3051 -0.4847 -0.5853
    1ACE   HH32    3  12.011   9.778   6.376  0.9902  1.3238 -0.4176
    1ACE   HH33    4  11.954   9.941   6.402 -1.1444 -0.3061  0.2099
    1ACE      C    5  11.848   9.825   6.255 -0.2504 -0.8328  0.6231
    1ACE      O    6  11.853   9.913   6.164  0.1838 -0.2732  0.1514
    2ALA      N    7  11.764   9.723   6.243  0.4820 -0.9197  0.3906
    2ALA      H    8  11.742   9.671   6.327 -0.3968  1.9845  2.0858
    2ALA     CA    9  11.690   9.705   6.121  0.1853  0.1880  0.3533
    2ALA     HA   10  11.682   9.800   6.067  0.5731  0.1861  0.2823
    2ALA     CB   11  11.779   9.610   6.036  0.0218  0.1101  0.2928
    2ALA    HB1   12  11.731   9.580   5.943 -1.5631  3.5814 -0.1922
    2ALA    HB2   13  11.878   9.653   6.024  0.1055 -0.3318 -0.6759
    2ALA    HB3   14  11.795   9.521   6.096  3.7421  0.6751  0.3185
    2ALA      C   15  11.547   9.644   6.148 -0.4721  0.7290  0.1401
    2ALA      O   16  11.523   9.602   6.257  0.2800  0.5342 -0.4215
    3ALA      N   17  11.464   9.609   6.050 -0.0334  0.5288 -0.1220
    3ALA      H   18  11.378   9.572   6.088  0.1378 -0.8730 -1.0378
    3ALA     CA   19  11.451   9.657   5.911 -0.9401 -0.9852 -0.5485
    3ALA     HA   20  11.343   9.662   5.902 -1.0062 -2.2447 -0.6571
    3ALA     CB   21  11.515   9.789   5.874  0.5537 -0.3651  0.7489
    3ALA    HB1   22  11.488   9.867   5.945  0.8186  1.5500 -1.1745
    3ALA    HB2   23  11.623   9.776   5.871  0.4532 -1.3136  0.7924
    3ALA    HB3   24  11.478   9.827   5.779  0.0122 -1.6011  0.4478
    3ALA      C   25  11.480   9.556   5.800 -0.0874  0.1217 -0.4357
    3ALA      O   26  11.560   9.466   5.818  0.2820 -0.0494 -0.0704
    4ALA      N   27  11.413   9.580   5.686 -0.3340  0.2435 -0.1675
    4ALA      H   28  11.343   9.652   5.694  1.4731  1.8110  2.8587
    4ALA     CA   29  11.399   9.495   5.562 -0.9177 -0.0686 -0.5924
    4ALA     HA   30  11.311   9.534   5.510 -0.5757  1.1214 -0.3062
    4ALA     CB   31  11.527   9.515   5.477 -0.5649  0.0816  0.0058
    4ALA    HB1   32  11.530   9.438   5.399 -1.1831  1.3218 -1.2808
    4ALA    HB2   33  11.527   9.611   5.425  2.0535 -0.2495 -0.7198
    4ALA    HB3   34  11.617   9.501   5.537  0.3194  3.9419 -0.1626
    4ALA      C   35  11.361   9.343   5.581  0.0053  0.2187  0.5935
    4ALA      O   36  11.261   9.305   5.525 -0.4929 -0.0659 -0.6953
    5NME      N   37  11.430   9.266   5.666  0.1387  0.3156  0.1605
    5NME      H   38  11.501   9.315   5.717  1.3903 -0.2659 -0.9656
    5NME    CH3   39  11.404   9.124   5.696 -0.3687  0.5771  0.0588
    5NME   HH31   40  11.404   9.061   5.607  0.8329  0.1015  0.3714
    5NME   HH32   41  11.489   9.100   5.760  0.4903  1.3802 -0.7356
    5NME   HH33   42  11.307   9.115   5.745 -0.4656  2.1341  0.2132
  20.91516  20.91516  20.91516
