Protein
   32
    1ACE   HH31    1  10.821   7.782  11.240  1.0891  3.0523 -1.2994
    1ACE    CH3    2  10.890   7.723  11.180  0.3522  0.4339  0.2415
    1ACE   HH32    3  10.855   7.628  11.142  1.5421 -0.2502  0.8196
    1ACE   HH33    4  10.986   7.708  11.230  0.1534 -1.8309  0.0351
    1ACE      C    5  10.930   7.810  11.061  0.4728 -0.4706  0.9352
    1ACE      O    6  11.032   7.879  11.067  0.5391  0.1500 -0.4880
    2ALA      N    7  10.864   7.794  10.946  0.2783 -0.2263 -0.4448
    2ALA      H    8  10.789   7.727  10.934  1.3582 -1.1997 -2.2539
    2ALA     CA    9  10.895   7.854  10.818 -0.2333 -0.1407  0.1227
    2ALA     HA   10  10.977   7.925  10.816  0.2830 -0.7213  0.0754
    2ALA     CB   11  10.924   7.735  10.723  0.0045  0.6615  0.0927
    2ALA    HB1   12  10.837   7.670  10.711  1.4956 -1.7476  1.7152
    2ALA    HB2   13  10.960   7.786  10.634  1.5724  1.6019  1.2347
    2ALA    HB3   14  11.011   7.685  10.765  0.5020  2.4086  1.3053
    2ALA      C   15  10.772   7.937  10.770 -0.5418 -0.4087 -0.0550
    2ALA      O   16  10.692   7.899  10.683  0.1174 -0.3359  0.3512
    3ALA      N   17  10.763   8.060  10.835 -0.3304 -0.2974  0.4770
    3ALA      H   18  10.829   8.075  10.910  2.0163  1.0736 -1.7214
    3ALA     CA   19  10.664   8.162  10.796  1.2021 -0.6637  0.5217
    3ALA     HA   20  10.595   8.107  10.732 -0.0668  0.9659  0.4123
    3ALA     CB   21  10.588   8.214  10.923  0.4033  0.2817 -0.0074
    3ALA    HB1   22  10.527   8.299  10.896 -1.0748 -0.3693  1.1632
    3ALA    HB2   23  10.515   8.140  10.954  0.3565  0.2944 -0.0919
    3ALA    HB3   24  10.652   8.258  10.999  1.7046 -1.6139  0.0913
    3ALA      C   25  10.727   8.282  10.718 -0.2424 -0.0360 -0.3013
    3ALA      O   26  10.757   8.384  10.777 -0.5368  0.0904  1.0576
    4NME      N   27  10.759   8.260  10.591  0.2296  0.0887  0.1402
    4NME      H   28  10.729   8.173  10.549  0.5118 -0.3893  0.8839
    4NME    CH3   29  10.817   8.361  10.502  0.6690  1.1471 -0.2146
    4NME   HH31   30  10.793   8.455  10.551 -0.5594 -0.0772  1.6267
    4NME   HH32   31  10.922   8.342  10.479  0.3654 -0.2794 -0.5739
    4NME   HH33   32  10.761   8.360  10.408  0.2018 -2.3712 -0.0300
  20.99041  20.99041  20.99041
