Title
  129
    1AIB    CAY    1  21.480  20.617  20.623 -0.0397  0.2185  0.3485
    1AIB    HY1    2  21.587  20.598  20.599 -0.2922  0.0790 -0.7615
    1AIB    HY2    3  21.447  20.668  20.530  1.9904 -0.1696 -0.6478
    1AIB    HY3    4  21.440  20.514  20.631  2.2723 -0.8719 -0.9031
    1AIB     CY    5  21.476  20.701  20.738  0.6281  0.0298 -0.2424
    1AIB     OY    6  21.519  20.815  20.734  0.5124 -0.1323 -0.2223
    1AIB      N    7  21.419  20.656  20.848  0.0325 -0.0396 -0.5261
    1AIB     HN    8  21.371  20.568  20.849 -0.5898  0.3016  0.0763
    1AIB     CA    9  21.393  20.734  20.967  0.0282  0.3986  0.0155
    1AIB    CB1   10  21.342  20.641  21.074 -0.0846 -0.1605 -0.0971
    1AIB   HB11   11  21.416  20.559  21.090 -0.3200 -0.4052 -0.2663
    1AIB   HB12   12  21.245  20.599  21.040 -0.0668  0.8609 -1.5357
    1AIB   HB13   13  21.313  20.686  21.171  0.4638 -1.5270  0.7294
    1AIB    CB2   14  21.280  20.837  20.932  0.0057 -0.2306 -0.1012
    1AIB   HB21   15  21.263  20.911  21.012  4.6847 -0.9500  1.8422
    1AIB   HB22   16  21.188  20.793  20.888  0.6739  1.1733 -3.1699
    1AIB   HB23   17  21.313  20.914  20.859  0.8243 -0.5738 -0.1029
    1AIB      C   18  21.519  20.809  21.025 -0.4071 -0.0568 -0.1423
    1AIB      O   19  21.504  20.922  21.071  0.2870 -0.1839  0.2581
    2AIB      N   20  21.639  20.749  21.032 -0.3350  0.2739  0.6937
    2AIB     HN   21  21.656  20.668  20.977  1.7468  1.2482 -0.2207
    2AIB     CA   22  21.760  20.824  21.071 -0.3807 -0.0574  0.0210
    2AIB    CB1   23  21.886  20.748  21.035  0.3700  0.1802 -0.5201
    2AIB   HB11   24  21.887  20.730  20.925 -1.2607  2.2143 -0.9385
    2AIB   HB12   25  21.891  20.655  21.096 -0.0863  1.2250  1.1800
    2AIB   HB13   26  21.979  20.802  21.062 -0.3462  1.1421  0.0605
    2AIB    CB2   27  21.749  20.846  21.224 -0.4340  0.3367  0.3126
    2AIB   HB21   28  21.760  20.752  21.281  0.7672 -1.0274 -2.0568
    2AIB   HB22   29  21.657  20.887  21.271  0.3420  1.5543  0.8374
    2AIB   HB23   30  21.834  20.913  21.248  0.9184 -0.1653 -2.6298
    2AIB      C   31  21.770  20.963  20.994  0.1236 -0.0311 -0.5859
    2AIB      O   32  21.796  21.064  21.054  0.1525  0.1844  0.3616
    3AIB      N   33  21.745  20.973  20.861 -0.5171  0.2612  0.0064
    3AIB     HN   34  21.725  20.887  20.815 -1.5608  0.0915  0.7385
    3AIB     CA   35  21.747  21.090  20.779  0.7093  0.7661 -0.3451
    3AIB    CB1   36  21.681  21.068  20.642  0.4561  0.1794  0.1547
    3AIB   HB11   37  21.572  21.048  20.641  0.4269 -0.0724 -2.9610
    3AIB   HB12   38  21.731  20.990  20.581  0.4950  0.3850 -0.0793
    3AIB   HB13   39  21.691  21.158  20.576 -0.5284 -0.5700 -1.0448
    3AIB    CB2   40  21.895  21.130  20.754  0.0890 -0.0324  0.0192
    3AIB   HB21   41  21.963  21.086  20.830 -0.4127  0.1240  0.5674
    3AIB   HB22   42  21.908  21.240  20.759 -3.1645  0.4023  2.4526
    3AIB   HB23   43  21.928  21.094  20.654  0.0179 -0.9645  0.3228
    3AIB      C   44  21.667  21.212  20.835 -0.1245 -0.3491 -0.3669
    3AIB      O   45  21.718  21.320  20.846  0.4581  0.3266 -0.2072
    4AIB      N   46  21.541  21.198  20.874  0.6332  0.5464 -0.1360
    4AIB     HN   47  21.495  21.110  20.864 -0.7461  1.2683 -0.3289
    4AIB     CA   48  21.443  21.303  20.916 -0.0839  0.1791 -0.1680
    4AIB    CB1   49  21.305  21.239  20.937 -0.7445  0.0440 -0.6966
    4AIB   HB11   50  21.280  21.187  20.842  0.6184  1.0958 -1.6745
    4AIB   HB12   51  21.231  21.322  20.947  0.5755  1.0153  1.6264
    4AIB   HB13   52  21.295  21.180  21.030  0.7588  1.1338  0.2053
    4AIB    CB2   53  21.435  21.425  20.828 -0.6129  0.1545  0.5434
    4AIB   HB21   54  21.394  21.517  20.876 -0.5457  0.4242  0.0822
    4AIB   HB22   55  21.385  21.406  20.730  0.3287 -2.1062  0.4480
    4AIB   HB23   56  21.539  21.461  20.812 -0.9516  1.5625  1.3013
    4AIB      C   57  21.471  21.347  21.062  0.2942  0.8194 -0.3947
    4AIB      O   58  21.466  21.465  21.101 -0.2867 -0.1509  0.4998
    5AIB      N   59  21.510  21.251  21.147  0.3841 -0.1633 -0.1822
    5AIB     HN   60  21.533  21.162  21.107  0.5212 -0.4550  0.5124
    5AIB     CA   61  21.540  21.280  21.285  0.3637  0.2128  0.1880
    5AIB    CB1   62  21.577  21.139  21.353 -0.1385  0.1903  1.1543
    5AIB   HB11   63  21.653  21.087  21.291 -1.3138 -2.8820  2.1152
    5AIB   HB12   64  21.496  21.064  21.339 -0.0908  0.5464 -1.5385
    5AIB   HB13   65  21.607  21.143  21.460  1.1787  0.1197  0.7965
    5AIB    CB2   66  21.417  21.342  21.356 -0.6094  0.5299 -0.3298
    5AIB   HB21   67  21.390  21.444  21.319  1.1250  0.8334 -0.8469
    5AIB   HB22   68  21.429  21.345  21.467  2.0512 -1.9678 -0.4483
    5AIB   HB23   69  21.328  21.277  21.347 -1.1063  1.3338 -1.4440
    5AIB      C   70  21.663  21.362  21.297 -0.3030 -0.6167 -0.3523
    5AIB      O   71  21.679  21.450  21.382  0.2219 -0.5310  0.2930
    6AIB      N   72  21.765  21.338  21.213 -0.1108 -0.0483 -0.0491
    6AIB     HN   73  21.760  21.262  21.148  2.9071 -0.9007  0.5360
    6AIB     CA   74  21.891  21.408  21.204  0.3009 -0.3336 -0.6700
    6AIB    CB1   75  21.974  21.325  21.098  0.1625  0.2725  0.1501
    6AIB   HB11   76  21.912  21.309  21.007 -0.6310  0.8619  0.5569
    6AIB   HB12   77  22.000  21.222  21.128  0.6102  0.2898 -0.1713
    6AIB   HB13   78  22.066  21.381  21.069  0.6113 -1.2977 -1.6192
    6AIB    CB2   79  21.971  21.381  21.335 -0.6527 -0.6325 -0.0285
    6AIB   HB21   80  22.065  21.439  21.345 -1.7261  0.8891  2.1937
    6AIB   HB22   81  21.996  21.273  21.331 -0.3036 -0.5344 -0.8172
    6AIB   HB23   82  21.906  21.407  21.421 -1.1573  0.6083 -0.7522
    6AIB      C   83  21.881  21.552  21.156  0.3094  0.9104 -0.3104
    6AIB      O   84  21.930  21.634  21.229 -0.2231 -0.0192 -0.1830
    7AIB      N   85  21.818  21.573  21.038  0.1215  0.3911  0.2274
    7AIB     HN   86  21.807  21.494  20.979 -2.7373  0.7643  0.1456
    7AIB     CA   87  21.796  21.702  20.978 -0.3137  0.2986  0.0333
    7AIB    CB1   88  21.692  21.690  20.863  0.1639 -0.0945  0.1634
    7AIB   HB11   89  21.734  21.616  20.791 -1.7207 -1.5582  0.4846
    7AIB   HB12   90  21.682  21.788  20.812 -1.5656  0.4223  1.4107
    7AIB   HB13   91  21.597  21.647  20.900 -0.2260 -0.0548 -0.7592
    7AIB    CB2   92  21.926  21.751  20.917 -0.1969  0.0760  0.0211
    7AIB   HB21   93  22.010  21.755  20.991 -1.6130  0.7637  1.6675
    7AIB   HB22   94  21.914  21.853  20.873 -1.2585  1.0472  2.3918
    7AIB   HB23   95  21.948  21.689  20.828  2.6974  0.5973  0.2650
    7AIB      C   96  21.745  21.806  21.086  0.2784 -0.1776 -0.0040
    7AIB      O   97  21.792  21.920  21.098 -0.0865  0.5829 -0.2915
    8AIB      N   98  21.651  21.763  21.172 -0.1948  0.3079 -0.0651
    8AIB     HN   99  21.626  21.668  21.162 -0.6488  0.5578 -1.4930
    8AIB     CA  100  21.585  21.836  21.280 -0.9751  0.2656  0.0177
    8AIB    CB1  101  21.498  21.741  21.356  0.8058  1.0932 -0.2509
    8AIB   HB11  102  21.543  21.659  21.414 -0.4222  1.5274  1.3858
    8AIB   HB12  103  21.435  21.690  21.280  1.1436  1.8483 -1.0631
    8AIB   HB13  104  21.434  21.803  21.423  1.1644  0.8177  0.3442
    8AIB    CB2  105  21.496  21.940  21.212  0.1492  0.6295  0.1075
    8AIB   HB21  106  21.456  22.017  21.280  0.1274 -0.0901  0.9423
    8AIB   HB22  107  21.410  21.881  21.175 -0.2432  0.6413  0.9631
    8AIB   HB23  108  21.554  21.997  21.136  0.0329  0.5710 -0.0275
    8AIB      C  109  21.685  21.893  21.384 -0.5676  0.1898 -0.9414
    8AIB      O  110  21.682  22.011  21.412  0.3608  0.2478 -0.0049
    9AIB      N  111  21.780  21.810  21.436  0.5198  0.4959 -0.2293
    9AIB     HN  112  21.795  21.718  21.402  2.0270 -0.5666  2.8180
    9AIB     CA  113  21.887  21.827  21.529 -1.0445  0.1319 -0.4510
    9AIB    CB1  114  21.962  21.694  21.543 -0.1257 -0.7140 -0.5373
    9AIB   HB11  115  22.033  21.692  21.629 -0.5488 -1.0808 -0.1947
    9AIB   HB12  116  22.024  21.666  21.455  1.3086  1.2636 -0.2163
    9AIB   HB13  117  21.887  21.613  21.553 -0.0624 -0.7726 -0.5280
    9AIB    CB2  118  21.826  21.864  21.668  0.2395 -0.1282  0.3783
    9AIB   HB21  119  21.757  21.786  21.707  0.3621 -0.5541 -0.2406
    9AIB   HB22  120  21.767  21.958  21.664  1.3683  0.5956  0.0955
    9AIB   HB23  121  21.907  21.886  21.741 -2.0030 -0.3774  3.0972
    9AIB      C  122  21.986  21.942  21.485  0.2039 -0.2015 -0.0453
    9AIB      O  123  22.044  22.011  21.567  0.1821 -0.6820  0.3011
    9AIB     NT  124  21.999  21.975  21.355  0.0189  0.3637 -0.4861
    9AIB    HNT  125  21.943  21.923  21.292  1.2832  0.6895 -1.9581
    9AIB    CAT  126  22.082  22.086  21.306  0.8213 -0.7687  0.2374
    9AIB    HT1  127  22.181  22.040  21.288  1.0438 -0.2784  0.2105
    9AIB    HT2  128  22.093  22.171  21.377 -0.6079  0.1805 -0.6214
    9AIB    HT3  129  22.050  22.127  21.208  2.8124 -1.4181 -0.7247
  42.09246  42.09246  42.09246
