Protein
   42
    1ACE   HH31    1  10.917  13.031   9.971 -0.9248 -2.3975 -0.3081
    1ACE    CH3    2  10.838  13.044  10.044 -0.2375  0.5538  0.0739
    1ACE   HH32    3  10.771  13.120  10.003 -0.8619  0.8091  1.5020
    1ACE   HH33    4  10.855  13.081  10.145 -0.2210  0.6875  0.0264
    1ACE      C    5  10.779  12.908  10.067 -0.2127 -0.1928 -0.4117
    1ACE      O    6  10.710  12.898  10.168 -0.4274  0.6856  0.0320
    2ALA      N    7  10.799  12.816   9.977  0.2204 -0.6162  0.1381
    2ALA      H    8  10.864  12.839   9.903  0.3639  0.6963  0.6355
    2ALA     CA    9  10.759  12.674   9.987 -0.3227 -0.9618  0.2955
    2ALA     HA   10  10.816  12.633  10.070  0.7993  2.4865  1.3698
    2ALA     CB   11  10.606  12.658  10.003  0.2996  0.1012  0.1551
    2ALA    HB1   12  10.573  12.699  10.098  1.0080  0.7208  0.1476
    2ALA    HB2   13  10.549  12.689   9.915  0.2857  2.1271  0.8125
    2ALA    HB3   14  10.592  12.551  10.015  1.0300 -0.0342 -0.1385
    2ALA      C   15  10.787  12.609   9.855 -0.4590 -0.6356  0.0176
    2ALA      O   16  10.795  12.681   9.752 -0.1427  0.0485  0.1188
    3ALA      N   17  10.809  12.477   9.851  0.9514 -1.1979 -0.3923
    3ALA      H   18  10.789  12.420   9.932 -0.8196 -0.5291 -0.3181
    3ALA     CA   19  10.848  12.402   9.733  1.0054  0.2008 -0.0503
    3ALA     HA   20  10.809  12.459   9.648  1.7128  2.6302  1.1617
    3ALA     CB   21  11.002  12.396   9.742  0.2768 -0.8171 -0.2049
    3ALA    HB1   22  11.032  12.353   9.838 -1.4508  0.7422  1.1173
    3ALA    HB2   23  11.041  12.338   9.658  1.0202 -0.8778  0.1728
    3ALA    HB3   24  11.038  12.499   9.732  1.4920 -1.1801  0.1782
    3ALA      C   25  10.784  12.257   9.730 -1.0187  0.1295  0.2125
    3ALA      O   26  10.765  12.205   9.839 -0.0038 -0.2120  0.4122
    4ALA      N   27  10.764  12.196   9.616 -0.2402  0.3595  0.0738
    4ALA      H   28  10.764  12.260   9.537 -1.5797 -0.9439 -1.0450
    4ALA     CA   29  10.669  12.086   9.592 -0.2220 -0.7035 -0.1008
    4ALA     HA   30  10.712  11.992   9.626  1.7767  0.5804  1.0622
    4ALA     CB   31  10.536  12.105   9.665 -0.2319 -0.3108 -0.3483
    4ALA    HB1   32  10.504  12.207   9.642  0.9170  0.0848 -0.2618
    4ALA    HB2   33  10.455  12.040   9.631 -0.8468  0.4804 -0.4459
    4ALA    HB3   34  10.540  12.104   9.774  1.6803 -0.5358 -0.3944
    4ALA      C   35  10.639  12.091   9.441  0.4364  0.0878 -0.5135
    4ALA      O   36  10.681  12.189   9.377 -0.1618  0.1550  0.0429
    5NME      N   37  10.591  11.978   9.386  0.3084  0.2775 -0.1209
    5NME      H   38  10.568  11.901   9.448 -0.7576  0.3068 -0.4592
    5NME    CH3   39  10.556  11.955   9.241 -0.1793 -0.4749  0.5216
    5NME   HH31   40  10.461  11.911   9.212  0.5997 -1.0187 -1.3837
    5NME   HH32   41  10.581  12.039   9.177 -0.9995 -0.2340  0.5117
    5NME   HH33   42  10.626  11.882   9.199  0.8082  0.5898  0.2312
  20.91516  20.91516  20.91516
