Protein
   32
    1ACE   HH31    1  11.117  11.974  11.881 -2.5130  0.0713 -0.7430
    1ACE    CH3    2  11.177  11.979  11.790 -0.1062 -0.1332  0.7449
    1ACE   HH32    3  11.270  12.035  11.790 -1.0046  1.4608 -1.0916
    1ACE   HH33    4  11.123  12.017  11.703  2.9475 -0.5109 -1.4614
    1ACE      C    5  11.215  11.836  11.755 -0.0218 -0.2628  0.0422
    1ACE      O    6  11.211  11.795  11.639 -0.2361  0.4681  0.0417
    2ALA      N    7  11.248  11.760  11.859 -0.4997 -0.0684  0.1766
    2ALA      H    8  11.243  11.787  11.957 -2.5192  1.0452 -0.1706
    2ALA     CA    9  11.290  11.618  11.836  1.0587  0.1808  0.3854
    2ALA     HA   10  11.237  11.586  11.747 -0.5423  0.8351  1.0776
    2ALA     CB   11  11.441  11.604  11.802  0.6792 -0.5105  0.0074
    2ALA    HB1   12  11.500  11.640  11.887 -1.2739  3.1544  0.0478
    2ALA    HB2   13  11.459  11.502  11.769 -1.1694 -0.8637 -0.0396
    2ALA    HB3   14  11.471  11.655  11.710  3.5682 -1.5437  0.2921
    2ALA      C   15  11.241  11.519  11.945  0.4493 -0.4335  0.4011
    2ALA      O   16  11.258  11.543  12.060  0.5423 -0.4640 -0.5314
    3ALA      N   17  11.183  11.405  11.903  0.2036 -0.4096 -0.2185
    3ALA      H   18  11.191  11.401  11.803  0.5245 -0.7596 -0.1833
    3ALA     CA   19  11.119  11.298  11.981  0.5718  0.4135 -0.4069
    3ALA     HA   20  11.054  11.243  11.912  2.0624 -2.1699  0.1038
    3ALA     CB   21  11.238  11.197  12.018  0.0272  0.1777 -0.3172
    3ALA    HB1   22  11.297  11.156  11.935 -0.2103 -2.8001  0.8539
    3ALA    HB2   23  11.309  11.249  12.081  1.4334  0.5843 -2.1262
    3ALA    HB3   24  11.201  11.114  12.078  1.3480 -1.0133 -1.0604
    3ALA      C   25  11.030  11.335  12.106  0.5627  0.2990 -1.0626
    3ALA      O   26  10.909  11.297  12.118  0.2348 -0.4861  0.3256
    4NME      N   27  11.095  11.387  12.210  0.9066 -0.1442  0.0364
    4NME      H   28  11.187  11.421  12.188  0.8516 -0.8732 -1.4847
    4NME    CH3   29  11.026  11.436  12.329 -0.3610 -0.2279 -0.6449
    4NME   HH31   30  10.973  11.530  12.317 -0.4774 -0.3048 -0.7345
    4NME   HH32   31  10.952  11.358  12.350 -0.0589 -0.2847  0.2687
    4NME   HH33   32  11.106  11.439  12.404 -0.7418  0.8239 -0.2744
  20.99041  20.99041  20.99041
