Title
  129
    1AIB    CAY    1  21.104  20.804  19.771 -0.0928 -0.0448 -0.8094
    1AIB    HY1    2  21.075  20.735  19.689 -0.8737 -0.9923  0.2393
    1AIB    HY2    3  21.069  20.766  19.869  0.1080 -1.8779 -1.4030
    1AIB    HY3    4  21.215  20.812  19.764 -0.2050  1.6862 -1.1373
    1AIB     CY    5  21.047  20.931  19.751 -0.2399  0.4243 -0.0895
    1AIB     OY    6  21.090  21.040  19.793 -0.2194 -0.3106  0.1712
    1AIB      N    7  20.924  20.923  19.699  0.4697 -0.4745  0.4156
    1AIB     HN    8  20.901  20.827  19.688  0.5094 -0.3176 -1.9731
    1AIB     CA    9  20.833  21.027  19.656  0.4638  0.3437  0.2193
    1AIB    CB1   10  20.700  20.963  19.625  0.4597  0.0822 -0.2256
    1AIB   HB11   11  20.651  20.902  19.705 -1.0416 -0.7361 -1.6923
    1AIB   HB12   12  20.715  20.892  19.541 -0.8026  2.0283 -2.1941
    1AIB   HB13   13  20.630  21.046  19.603  1.5732  1.0168 -0.3136
    1AIB    CB2   14  20.888  21.084  19.525 -0.2865  0.4009 -0.0068
    1AIB   HB21   15  20.922  21.009  19.450 -1.0892 -1.6692  1.6163
    1AIB   HB22   16  20.971  21.150  19.556  1.4709 -1.9588  0.6268
    1AIB   HB23   17  20.802  21.131  19.473 -1.1482 -3.6209 -2.7087
    1AIB      C   18  20.818  21.147  19.761  0.2962 -0.3147  0.4981
    1AIB      O   19  20.831  21.270  19.723  0.2868 -0.1129 -1.0328
    2AIB      N   20  20.793  21.106  19.884 -0.5143 -0.2716 -0.1402
    2AIB     HN   21  20.789  21.008  19.903 -1.5610 -0.1901  0.0847
    2AIB     CA   22  20.791  21.204  19.995  0.7045 -0.2072 -0.4167
    2AIB    CB1   23  20.768  21.120  20.126 -0.4496 -0.5051 -0.1665
    2AIB   HB11   24  20.755  21.178  20.220  1.5292 -0.7907  0.3160
    2AIB   HB12   25  20.851  21.047  20.138 -0.9582 -0.8950  1.1921
    2AIB   HB13   26  20.677  21.056  20.113 -0.9266  0.0223  0.4195
    2AIB    CB2   27  20.661  21.286  19.982 -0.5399 -0.2490 -0.2958
    2AIB   HB21   28  20.659  21.353  19.894  2.0498  1.2110  0.6192
    2AIB   HB22   29  20.650  21.353  20.070  0.9873  0.5742 -0.6960
    2AIB   HB23   30  20.565  21.231  19.985 -0.5081 -0.4368 -1.8324
    2AIB      C   31  20.915  21.301  20.020  0.8149  0.1197  0.4182
    2AIB      O   32  20.894  21.418  20.056  0.4266  0.1174  0.6114
    3AIB      N   33  21.043  21.252  20.022  0.6419  0.2846 -0.0236
    3AIB     HN   34  21.053  21.155  19.998  0.5819  0.3545 -0.3436
    3AIB     CA   35  21.159  21.322  20.068 -0.1221 -0.8461 -0.0088
    3AIB    CB1   36  21.275  21.212  20.069  0.4675 -0.5041 -0.1862
    3AIB   HB11   37  21.265  21.147  20.158  2.4786 -0.4032  0.1587
    3AIB   HB12   38  21.372  21.264  20.086  0.5440 -0.4532 -0.7636
    3AIB   HB13   39  21.281  21.152  19.976 -0.1682 -0.8016 -0.0375
    3AIB    CB2   40  21.144  21.387  20.210  0.1002 -0.3848  1.2386
    3AIB   HB21   41  21.067  21.466  20.216  1.8274  1.3032  2.7116
    3AIB   HB22   42  21.236  21.438  20.246  0.8215  0.8166 -1.9348
    3AIB   HB23   43  21.116  21.308  20.283 -1.9485  0.5298  1.4774
    3AIB      C   44  21.197  21.423  19.956  0.1433 -0.2931  0.6018
    3AIB      O   45  21.242  21.534  19.982  0.8321  0.0456  0.3586
    4AIB      N   46  21.193  21.368  19.829 -0.4975 -0.4181  0.3418
    4AIB     HN   47  21.149  21.279  19.827 -0.8787 -0.2168 -1.4649
    4AIB     CA   48  21.214  21.446  19.709  0.3981  0.3986  0.2437
    4AIB    CB1   49  21.187  21.363  19.582 -0.4962 -0.0772 -0.3318
    4AIB   HB11   50  21.089  21.311  19.590 -0.5449  0.1156  0.5089
    4AIB   HB12   51  21.274  21.296  19.562 -0.7470 -0.0044 -1.7561
    4AIB   HB13   52  21.193  21.428  19.492  0.7078 -0.7602 -0.7876
    4AIB    CB2   53  21.363  21.486  19.696 -0.0617  0.1101  0.2677
    4AIB   HB21   54  21.379  21.540  19.601  0.5260  1.2656  1.0015
    4AIB   HB22   55  21.437  21.403  19.699  0.3075  0.4563  1.5906
    4AIB   HB23   56  21.386  21.561  19.774  0.1659 -2.9877  3.4588
    4AIB      C   57  21.119  21.567  19.697 -0.5279  0.3245 -0.2670
    4AIB      O   58  21.164  21.679  19.678  0.7611 -0.1380  0.0301
    5AIB      N   59  20.985  21.549  19.709  0.5092  0.0131 -0.0849
    5AIB     HN   60  20.939  21.461  19.721 -2.3077  1.3477 -0.1464
    5AIB     CA   61  20.882  21.654  19.708 -0.5149  0.1688  0.3213
    5AIB    CB1   62  20.745  21.612  19.742 -0.1424  0.3841  0.1805
    5AIB   HB11   63  20.741  21.557  19.839  0.3590  0.0117 -0.0073
    5AIB   HB12   64  20.690  21.557  19.662  0.1282  3.0014 -1.9449
    5AIB   HB13   65  20.669  21.691  19.759 -1.3767 -0.1585 -2.2826
    5AIB    CB2   66  20.878  21.693  19.561  0.1088 -0.0250 -0.2648
    5AIB   HB21   67  20.798  21.770  19.549  1.0577  1.0563  0.1106
    5AIB   HB22   68  20.854  21.613  19.488 -1.3975  0.1708 -0.0167
    5AIB   HB23   69  20.976  21.738  19.535  0.6461  1.0703  3.1517
    5AIB      C   70  20.917  21.770  19.806 -0.0554  0.3733  1.1193
    5AIB      O   71  20.930  21.884  19.761 -0.1092  0.1560  0.4276
    6AIB      N   72  20.933  21.736  19.940  0.3643 -0.6768 -0.1453
    6AIB     HN   73  20.912  21.640  19.960  1.8014 -0.8175  0.8310
    6AIB     CA   74  20.975  21.823  20.047 -0.3954 -0.0615 -0.2432
    6AIB    CB1   75  21.017  21.731  20.156  0.5546  0.3660 -0.0525
    6AIB   HB11   76  20.941  21.654  20.182 -0.5655  1.1678 -0.8267
    6AIB   HB12   77  21.032  21.788  20.250 -1.9967  0.3651  0.4479
    6AIB   HB13   78  21.106  21.671  20.129 -0.2290 -1.3349  1.0099
    6AIB    CB2   79  20.857  21.911  20.084 -0.8603  0.1352 -0.6497
    6AIB   HB21   80  20.831  21.985  20.005 -1.0270  1.0306  0.2180
    6AIB   HB22   81  20.884  21.971  20.174 -0.2440  0.6847 -1.1839
    6AIB   HB23   82  20.765  21.861  20.120 -0.5641 -0.6512 -0.9700
    6AIB      C   83  21.102  21.903  20.000  0.0185 -0.0432  0.0319
    6AIB      O   84  21.096  22.030  20.000 -0.3795  0.6101 -0.4290
    7AIB      N   85  21.216  21.844  19.966 -0.0434 -0.2031 -0.1849
    7AIB     HN   86  21.230  21.748  19.945  1.0682 -0.3858  1.1896
    7AIB     CA   87  21.350  21.910  19.955 -0.3392 -0.3249  0.2316
    7AIB    CB1   88  21.444  21.801  19.946 -0.1809  0.5810  0.6634
    7AIB   HB11   89  21.426  21.741  19.854  0.1026 -0.4814  1.2900
    7AIB   HB12   90  21.452  21.733  20.033  0.3672 -0.5531 -0.2414
    7AIB   HB13   91  21.543  21.839  19.913 -0.2749 -0.1039 -0.5137
    7AIB    CB2   92  21.379  21.999  20.076  0.0586  0.3983 -0.3830
    7AIB   HB21   93  21.339  21.947  20.165  1.0119 -0.3463 -0.3730
    7AIB   HB22   94  21.314  22.088  20.058  1.5243  1.6797  0.4127
    7AIB   HB23   95  21.482  22.039  20.072 -0.0523  0.6333 -1.1659
    7AIB      C   96  21.346  21.996  19.825 -0.4053  0.1978  0.0824
    7AIB      O   97  21.408  22.099  19.824  0.2870 -0.2312 -0.3048
    8AIB      N   98  21.277  21.956  19.722 -0.0856 -0.0328  0.0731
    8AIB     HN   99  21.226  21.871  19.733 -0.0453  0.1427  1.7979
    8AIB     CA  100  21.258  22.029  19.599  0.0239 -0.3437  0.3259
    8AIB    CB1  101  21.174  21.944  19.511 -0.6025  0.5091  0.1086
    8AIB   HB11  102  21.073  21.930  19.554 -0.6235 -1.3172 -0.4230
    8AIB   HB12  103  21.224  21.848  19.485  2.8143  2.3348 -0.6224
    8AIB   HB13  104  21.163  21.995  19.413  2.2027  2.1760  0.5666
    8AIB    CB2  105  21.392  22.041  19.529  0.8857 -0.1044  0.0692
    8AIB   HB21  106  21.380  22.083  19.426 -0.0434  1.1575  0.6591
    8AIB   HB22  107  21.448  21.945  19.529  0.4308 -0.3915 -1.2274
    8AIB   HB23  108  21.466  22.112  19.572  1.0172  0.9381 -1.7443
    8AIB      C  109  21.198  22.167  19.617  0.2072 -0.4271  0.6234
    8AIB      O  110  21.232  22.260  19.545  0.7176 -0.2319  0.2510
    9AIB      N  111  21.097  22.179  19.709 -0.5462 -0.1515  0.1009
    9AIB     HN  112  21.068  22.095  19.755  1.0566  0.1528  1.8409
    9AIB     CA  113  21.025  22.300  19.742  0.7363  0.8942  0.5310
    9AIB    CB1  114  20.915  22.248  19.849 -0.6141 -0.1501 -0.7986
    9AIB   HB11  115  20.973  22.209  19.935 -1.3310 -0.1867 -0.3355
    9AIB   HB12  116  20.859  22.164  19.803 -0.5509 -0.6271 -0.0201
    9AIB   HB13  117  20.840  22.324  19.880  0.6249  0.9783 -0.4873
    9AIB    CB2  118  20.952  22.357  19.618 -0.0685  0.0259 -1.0251
    9AIB   HB21  119  21.017  22.427  19.560  0.3769  0.6421  0.1885
    9AIB   HB22  120  20.861  22.409  19.656 -0.3148 -1.1827  0.0775
    9AIB   HB23  121  20.908  22.276  19.556 -0.6938  0.2800 -0.9197
    9AIB      C  122  21.114  22.400  19.816 -0.2567 -0.2986 -0.4010
    9AIB      O  123  21.112  22.520  19.790 -0.5987  0.0571 -0.4817
    9AIB     NT  124  21.207  22.361  19.901  0.0621 -0.2128 -0.6123
    9AIB    HNT  125  21.215  22.262  19.912 -0.8398 -0.0722  2.1330
    9AIB    CAT  126  21.289  22.452  19.975  0.7060 -0.1907  0.5121
    9AIB    HT1  127  21.228  22.527  20.030 -1.0132  0.5840 -2.2025
    9AIB    HT2  128  21.343  22.514  19.901 -1.0860 -0.7862 -1.3691
    9AIB    HT3  129  21.364  22.399  20.037  1.1945  1.6509  1.5554
  42.09246  42.09246  42.09246
