Protein
   42
    1ACE   HH31    1   7.838  12.697   8.328 -1.2027  0.4637  1.1473
    1ACE    CH3    2   7.861  12.594   8.355  0.5175  0.3452 -0.5014
    1ACE   HH32    3   7.943  12.561   8.291  0.3441 -2.4455  0.5550
    1ACE   HH33    4   7.770  12.540   8.328 -0.2904  0.5645  1.5545
    1ACE      C    5   7.887  12.580   8.500  0.4480 -0.4437 -0.9534
    1ACE      O    6   7.988  12.525   8.546  0.0908 -0.1763  0.5128
    2ALA      N    7   7.788  12.627   8.574  0.5672 -0.3956 -0.2002
    2ALA      H    8   7.700  12.643   8.527 -0.4678 -2.6535  0.7990
    2ALA     CA    9   7.794  12.663   8.716  0.1572 -0.3703  0.4588
    2ALA     HA   10   7.901  12.675   8.736  0.4298  1.6058 -1.8650
    2ALA     CB   11   7.739  12.807   8.716  0.0555  0.4767 -0.3092
    2ALA    HB1   12   7.790  12.882   8.656  0.6307  1.1757  1.0120
    2ALA    HB2   13   7.634  12.798   8.687  0.2552  0.1224 -0.9513
    2ALA    HB3   14   7.737  12.853   8.814  1.1200 -1.0886  0.4930
    2ALA      C   15   7.724  12.564   8.811 -0.6106  0.1607  0.4019
    2ALA      O   16   7.604  12.578   8.830  0.0700  0.2962  0.0276
    3ALA      N   17   7.784  12.450   8.865  0.6039  0.4420  0.7796
    3ALA      H   18   7.720  12.392   8.916  0.5187  1.4189  1.7885
    3ALA     CA   19   7.917  12.394   8.836 -0.2548 -0.3922 -0.0938
    3ALA     HA   20   7.976  12.466   8.778 -0.1847 -0.6631 -0.3762
    3ALA     CB   21   7.987  12.370   8.968  0.1651  0.0904  0.1175
    3ALA    HB1   22   7.989  12.463   9.025  0.8504  1.1771 -1.5992
    3ALA    HB2   23   7.930  12.300   9.029 -2.2920  1.2450 -0.7194
    3ALA    HB3   24   8.084  12.326   8.948 -1.0478 -2.4706 -0.5980
    3ALA      C   25   7.903  12.269   8.747  0.1859  0.2980 -0.4505
    3ALA      O   26   7.815  12.189   8.764 -0.1681 -0.3724 -0.0623
    4ALA      N   27   8.000  12.250   8.662  0.4836  0.1854  0.7059
    4ALA      H   28   8.062  12.329   8.651  0.1091  0.4446  0.4214
    4ALA     CA   29   8.004  12.152   8.552 -0.2474  0.0092  0.2459
    4ALA     HA   30   7.947  12.062   8.572 -0.7627  0.1087 -0.7019
    4ALA     CB   31   7.920  12.206   8.432  0.0329  0.2253 -0.0099
    4ALA    HB1   32   7.820  12.231   8.467  0.0368  1.4560 -0.7756
    4ALA    HB2   33   7.970  12.292   8.387 -1.7327  1.4202  0.2068
    4ALA    HB3   34   7.916  12.132   8.351  0.7263  0.2449 -0.0750
    4ALA      C   35   8.154  12.130   8.516 -1.0088  0.1505 -0.4315
    4ALA      O   36   8.226  12.222   8.489 -0.3218 -0.0383  0.1666
    5NME      N   37   8.204  12.005   8.533 -0.2288  0.1798  0.6478
    5NME      H   38   8.148  11.934   8.577  2.0762 -1.0113  1.8467
    5NME    CH3   39   8.340  11.962   8.488 -0.0254 -0.5250  0.5962
    5NME   HH31   40   8.407  12.048   8.491 -0.0087 -0.3956 -1.4325
    5NME   HH32   41   8.391  11.901   8.562  0.7686 -1.1393 -0.4075
    5NME   HH33   42   8.330  11.915   8.390 -1.1623 -0.6761  0.7832
  20.91516  20.91516  20.91516
