Protein
   42
    1ACE   HH31    1   7.689  14.457   5.832 -1.1059  1.1534 -1.7133
    1ACE    CH3    2   7.754  14.529   5.783  0.4888  0.5379 -0.5805
    1ACE   HH32    3   7.799  14.584   5.865 -0.8813 -1.8016  1.8888
    1ACE   HH33    4   7.692  14.591   5.719 -1.2855 -2.0755 -1.5743
    1ACE      C    5   7.865  14.466   5.700  0.3910  0.9808 -0.1724
    1ACE      O    6   7.863  14.483   5.579 -0.1709 -0.0942  0.3930
    2ALA      N    7   7.961  14.408   5.772  0.1498  0.6642 -0.0229
    2ALA      H    8   7.950  14.395   5.872  2.4778  2.7527  0.6212
    2ALA     CA    9   8.059  14.328   5.701  0.5311 -0.5571  1.0863
    2ALA     HA   10   8.017  14.308   5.602  0.6066  1.8427  0.5055
    2ALA     CB   11   8.184  14.417   5.680 -0.1929  0.6049 -0.3002
    2ALA    HB1   12   8.252  14.358   5.619 -2.1625  0.8652 -2.8886
    2ALA    HB2   13   8.157  14.508   5.625 -0.5604  0.3344 -0.5677
    2ALA    HB3   14   8.231  14.437   5.777 -1.6812  1.5995  0.2592
    2ALA      C   15   8.085  14.202   5.782 -0.2085  0.3852 -0.0478
    2ALA      O   16   8.123  14.216   5.901 -0.3267 -0.4553 -0.2878
    3ALA      N   17   8.064  14.082   5.727  0.2689  0.2986 -0.8110
    3ALA      H   18   8.084  14.007   5.791 -2.0887 -1.8980 -2.5085
    3ALA     CA   19   7.963  14.047   5.625 -0.3017  0.0475 -0.3583
    3ALA     HA   20   7.990  14.082   5.525 -0.1254 -0.9020 -0.6629
    3ALA     CB   21   7.969  13.893   5.617  0.1080 -0.9297  0.2948
    3ALA    HB1   22   8.072  13.859   5.627 -0.0836 -1.1806  1.6888
    3ALA    HB2   23   7.917  13.849   5.703  0.0602  1.1990  1.4514
    3ALA    HB3   24   7.914  13.855   5.531 -0.8929  0.3483  0.3180
    3ALA      C   25   7.816  14.096   5.648 -0.6346  0.5821  0.2493
    3ALA      O   26   7.778  14.165   5.739 -0.5234 -0.0290 -0.1643
    4ALA      N   27   7.735  14.068   5.543 -0.0158  0.3262  0.3564
    4ALA      H   28   7.776  14.011   5.470  1.6942  1.1812  0.5620
    4ALA     CA   29   7.607  14.136   5.520  0.1518  0.4067 -0.3785
    4ALA     HA   30   7.579  14.200   5.603 -1.2227 -1.0580  0.3399
    4ALA     CB   31   7.612  14.225   5.396  0.1680  0.1995 -0.4706
    4ALA    HB1   32   7.516  14.274   5.378  0.0398 -0.3185 -1.3185
    4ALA    HB2   33   7.685  14.306   5.400 -2.8874  3.2295 -0.9544
    4ALA    HB3   34   7.637  14.165   5.308 -1.9324 -2.2898  0.4897
    4ALA      C   35   7.484  14.036   5.528 -0.4241  0.5758  0.1892
    4ALA      O   36   7.491  13.916   5.510  0.4746  0.0262 -1.0535
    5NME      N   37   7.366  14.099   5.542  0.7556 -0.0759 -0.0776
    5NME      H   38   7.369  14.198   5.557 -0.3338 -0.2852  1.6855
    5NME    CH3   39   7.235  14.041   5.506  0.9870 -0.2600  0.3737
    5NME   HH31   40   7.249  13.933   5.511 -0.7149 -0.4945  0.6615
    5NME   HH32   41   7.158  14.071   5.576 -0.0921 -2.0164 -0.0203
    5NME   HH33   42   7.208  14.069   5.405 -1.4412  2.7226  1.7205
  20.91516  20.91516  20.91516
