Protein
   42
    1ACE   HH31    1  10.462  12.388  10.290 -1.4036 -2.1660  0.6305
    1ACE    CH3    2  10.388  12.392  10.210 -0.0404 -0.4201 -0.6014
    1ACE   HH32    3  10.307  12.453  10.249  0.9700  0.6675 -0.1071
    1ACE   HH33    4  10.364  12.290  10.183  0.5250 -0.7789  0.2114
    1ACE      C    5  10.447  12.469  10.093 -0.2990  0.0670 -0.3612
    1ACE      O    6  10.563  12.500  10.096 -0.0368  0.3034  0.1627
    2ALA      N    7  10.367  12.486   9.993  0.2511 -0.6009  0.6748
    2ALA      H    8  10.269  12.464   9.996 -0.0488  0.6070  0.0787
    2ALA     CA    9  10.406  12.547   9.865 -0.3752  0.7342  0.1705
    2ALA     HA   10  10.495  12.608   9.882  0.9962 -1.0060 -0.5069
    2ALA     CB   11  10.452  12.430   9.771 -0.3459  0.1131 -0.3466
    2ALA    HB1   12  10.538  12.386   9.820 -1.2659  0.5309  1.7354
    2ALA    HB2   13  10.375  12.353   9.774  0.6648 -0.8923  0.5317
    2ALA    HB3   14  10.481  12.457   9.670  1.0738  0.3276  0.1056
    2ALA      C   15  10.290  12.637   9.815 -0.2606  0.0069  0.5329
    2ALA      O   16  10.251  12.634   9.701 -1.1997  0.6121  0.5284
    3ALA      N   17  10.231  12.713   9.908  0.1416 -0.3808 -0.4067
    3ALA      H   18  10.281  12.714   9.996  0.9083 -0.9535 -0.8304
    3ALA     CA   19  10.103  12.787   9.904  0.1181 -0.0628  0.1636
    3ALA     HA   20  10.082  12.823  10.005 -1.3740  2.1684 -0.8613
    3ALA     CB   21  10.099  12.894   9.800  0.0332 -0.6917  0.1860
    3ALA    HB1   22  10.173  12.968   9.832 -0.9240  0.5947 -0.4606
    3ALA    HB2   23  10.136  12.867   9.701  0.1246  0.6743 -0.1834
    3ALA    HB3   24  10.001  12.943   9.796  1.0083  1.5074  1.4500
    3ALA      C   25   9.983  12.695   9.887  0.3466 -0.5602 -0.1986
    3ALA      O   26   9.889  12.699   9.970  0.2051  0.1390  0.1255
    4ALA      N   27   9.983  12.619   9.781  0.0785 -0.3568  0.4447
    4ALA      H   28  10.047  12.651   9.710  1.3512 -2.3243  0.6277
    4ALA     CA   29   9.938  12.478   9.786 -0.0831  0.4230  0.0466
    4ALA     HA   30   9.830  12.468   9.783  0.1736 -3.8817 -0.1039
    4ALA     CB   31   9.980  12.404   9.660 -0.1683 -0.0496  0.6209
    4ALA    HB1   32   9.951  12.451   9.566  1.2665  0.7464  0.5568
    4ALA    HB2   33  10.088  12.393   9.655 -0.2259 -0.2694 -0.3072
    4ALA    HB3   34   9.939  12.303   9.670  1.3498 -0.4122  4.9959
    4ALA      C   35   9.983  12.400   9.912  0.4609 -0.1398  0.7010
    4ALA      O   36  10.103  12.405   9.945  0.3249  0.7306  0.5016
    5NME      N   37   9.896  12.323   9.973  0.4183  0.2134 -0.8291
    5NME      H   38   9.802  12.307   9.938 -0.1273  2.5711 -0.5926
    5NME    CH3   39   9.928  12.247  10.095  0.1597  0.5449  0.3606
    5NME   HH31   40   9.915  12.141  10.072  0.7731 -0.0985  2.6834
    5NME   HH32   41  10.033  12.249  10.127  0.4393 -2.0168 -0.2268
    5NME   HH33   42   9.862  12.279  10.175  1.1340  1.1290  0.9567
  20.91516  20.91516  20.91516
