Protein
   22
    1ACE   HH31    1   7.795   5.374   7.811 -1.6932  1.8520  0.5768
    1ACE    CH3    2   7.834   5.369   7.912 -0.1317  0.1626 -0.0540
    1ACE   HH32    3   7.924   5.307   7.903 -1.3320 -1.5156 -1.1294
    1ACE   HH33    4   7.766   5.316   7.979  1.8543 -1.3442  0.9140
    1ACE      C    5   7.865   5.513   7.958  0.1431 -0.1056  0.5445
    1ACE      O    6   7.976   5.550   7.988  0.4775 -0.3096 -0.0958
    2ALA      N    7   7.760   5.598   7.959  0.0357  0.2293 -0.7970
    2ALA      H    8   7.670   5.555   7.947  1.0215 -2.1457 -0.1921
    2ALA     CA    9   7.770   5.740   7.979 -0.3834 -0.1404  0.3352
    2ALA     HA   10   7.877   5.753   7.966 -0.0243 -2.9296 -0.2270
    2ALA     CB   11   7.698   5.802   7.854 -0.0067  0.4181 -0.5303
    2ALA    HB1   12   7.740   5.768   7.759 -1.3116  1.4142 -1.4990
    2ALA    HB2   13   7.594   5.770   7.850  0.4484 -1.1056 -1.3068
    2ALA    HB3   14   7.700   5.911   7.858 -1.7602  0.4375  1.8615
    2ALA      C   15   7.736   5.801   8.116  0.4710 -0.0171  0.0344
    2ALA      O   16   7.744   5.922   8.131 -0.8693  0.0553 -0.3646
    3NME      N   17   7.691   5.711   8.202  0.5388  0.3958 -0.5111
    3NME      H   18   7.698   5.616   8.168  0.7642 -1.0398  3.0894
    3NME    CH3   19   7.652   5.741   8.339 -0.0050  0.6487 -0.0760
    3NME   HH31   20   7.697   5.673   8.411  2.1139  0.3148 -1.6517
    3NME   HH32   21   7.680   5.842   8.370  0.5654  0.5487 -0.2614
    3NME   HH33   22   7.543   5.751   8.341 -0.0326  0.2635  0.8407
  10.72160  10.72160  10.72160
