Title
  129
    1AIB    CAY    1  19.415  22.806  19.852 -0.1221  0.1816 -0.4242
    1AIB    HY1    2  19.370  22.900  19.814 -2.0501 -0.0224  1.1637
    1AIB    HY2    3  19.388  22.722  19.783  2.2747 -1.0110 -0.0475
    1AIB    HY3    4  19.523  22.829  19.847 -0.0617  0.1160  0.4468
    1AIB     CY    5  19.366  22.781  19.990 -0.3474 -0.5164 -0.0636
    1AIB     OY    6  19.392  22.678  20.049  0.3269  0.2923 -0.3686
    1AIB      N    7  19.302  22.879  20.040  0.2035 -0.1311 -0.8409
    1AIB     HN    8  19.269  22.958  19.989 -0.9292  0.5304  0.8030
    1AIB     CA    9  19.270  22.890  20.180 -0.7453  0.0441  0.0787
    1AIB    CB1   10  19.187  23.021  20.192  0.4511 -0.3282  0.1394
    1AIB   HB11   11  19.100  23.030  20.123 -0.4691  0.8588  1.3961
    1AIB   HB12   12  19.255  23.108  20.176 -0.9546  0.8846  0.6014
    1AIB   HB13   13  19.146  23.029  20.295 -0.7002 -0.9144 -0.2608
    1AIB    CB2   14  19.398  22.912  20.263  0.5337  0.8259 -0.3717
    1AIB   HB21   15  19.459  22.819  20.267  3.1724  2.4010 -1.2589
    1AIB   HB22   16  19.378  22.943  20.367  1.1698  0.7479 -0.2196
    1AIB   HB23   17  19.474  22.978  20.214  1.1987 -0.2429 -0.8373
    1AIB      C   18  19.185  22.770  20.234 -0.6823 -0.4530 -0.4726
    1AIB      O   19  19.204  22.717  20.346  0.2339  0.4478  0.1658
    2AIB      N   20  19.084  22.731  20.153 -0.5502 -0.1263  0.0641
    2AIB     HN   21  19.066  22.783  20.070 -1.0199 -3.2403 -1.9401
    2AIB     CA   22  18.990  22.634  20.185  0.8470  0.2877  0.1530
    2AIB    CB1   23  18.901  22.599  20.060 -0.3217 -0.3423  0.3181
    2AIB   HB11   24  18.826  22.678  20.041 -0.7772 -0.4540  1.5344
    2AIB   HB12   25  18.837  22.516  20.097 -2.1411  1.1001  0.5473
    2AIB   HB13   26  18.964  22.570  19.973  0.0848 -1.0169  0.8167
    2AIB    CB2   27  18.900  22.679  20.299 -0.5695  0.5089 -1.0675
    2AIB   HB21   28  18.846  22.774  20.279 -0.4535  0.7070 -0.4549
    2AIB   HB22   29  18.960  22.687  20.392 -0.7821  1.6131 -1.0033
    2AIB   HB23   30  18.824  22.598  20.309  2.2253 -2.0134  0.9871
    2AIB      C   31  19.067  22.503  20.212 -0.0042 -0.0389  0.1561
    2AIB      O   32  19.023  22.431  20.303  0.2072  0.1241 -0.0596
    3AIB      N   33  19.174  22.468  20.134  0.0344 -1.2219  0.4606
    3AIB     HN   34  19.221  22.540  20.082 -1.9301 -1.4647 -1.8398
    3AIB     CA   35  19.245  22.341  20.147 -0.8342 -0.2672  0.3446
    3AIB    CB1   36  19.350  22.340  20.027  0.2042  0.1559  0.4931
    3AIB   HB11   37  19.413  22.432  20.032 -2.6728  2.2487  0.6872
    3AIB   HB12   38  19.300  22.319  19.931 -2.2361  0.9769  1.5285
    3AIB   HB13   39  19.415  22.250  20.028 -1.4467 -1.2084 -2.7308
    3AIB    CB2   40  19.146  22.224  20.120 -0.0314  0.2222 -0.3293
    3AIB   HB21   41  19.203  22.128  20.115  2.0601  1.2717  1.5476
    3AIB   HB22   42  19.093  22.240  20.024  0.7759 -1.3571 -1.0948
    3AIB   HB23   43  19.075  22.220  20.205  1.2196  4.1142  1.0499
    3AIB      C   44  19.324  22.331  20.277 -0.0396 -0.9117  1.0707
    3AIB      O   45  19.317  22.228  20.339 -0.6169 -0.7730 -0.4434
    4AIB      N   46  19.403  22.439  20.308  0.2944 -0.3789 -0.1990
    4AIB     HN   47  19.404  22.514  20.243 -0.3902 -1.8089 -1.9505
    4AIB     CA   48  19.494  22.452  20.424  0.3270 -0.4403 -0.3969
    4AIB    CB1   49  19.533  22.600  20.427 -0.0734  0.4019 -0.5902
    4AIB   HB11   50  19.591  22.621  20.335 -1.7424 -0.4446 -1.8813
    4AIB   HB12   51  19.598  22.602  20.516  3.4912  1.0815 -3.0332
    4AIB   HB13   52  19.442  22.664  20.434 -1.1281 -1.0597 -0.3989
    4AIB    CB2   53  19.609  22.359  20.399 -0.3149  0.5258 -0.6577
    4AIB   HB21   54  19.577  22.254  20.383 -2.0809  1.0942 -1.0608
    4AIB   HB22   55  19.679  22.364  20.485  0.7743  0.3511 -1.5022
    4AIB   HB23   56  19.670  22.386  20.310 -1.5613 -0.9525 -2.0272
    4AIB      C   57  19.424  22.416  20.557  0.0186 -0.6633  0.2129
    4AIB      O   58  19.475  22.354  20.654 -0.5256  0.7780  0.3011
    5AIB      N   59  19.302  22.474  20.568 -0.3541  0.0141  0.3526
    5AIB     HN   60  19.264  22.523  20.489 -0.9763  0.5374  0.9669
    5AIB     CA   61  19.210  22.457  20.677  0.0319  0.7488  0.0974
    5AIB    CB1   62  19.082  22.523  20.632  0.5270 -0.2966  0.0461
    5AIB   HB11   63  19.041  22.473  20.541  0.6122  0.8605 -0.6475
    5AIB   HB12   64  19.095  22.632  20.616 -0.3870 -0.5020 -2.4682
    5AIB   HB13   65  18.996  22.516  20.701 -1.2469  3.6608 -1.4600
    5AIB    CB2   66  19.266  22.524  20.806  0.0989 -0.1343  0.3598
    5AIB   HB21   67  19.377  22.522  20.807  0.2161  2.3632 -0.2708
    5AIB   HB22   68  19.218  22.486  20.899  1.8280  0.9426  1.7521
    5AIB   HB23   69  19.238  22.631  20.792 -0.6758 -0.4644 -0.8715
    5AIB      C   70  19.182  22.302  20.698  0.1734 -0.0941  0.8070
    5AIB      O   71  19.204  22.245  20.806  0.0388 -0.2323 -0.3543
    6AIB      N   72  19.116  22.236  20.597  0.7251 -0.2574 -0.2277
    6AIB     HN   73  19.086  22.294  20.521 -1.6947 -1.0543  0.0182
    6AIB     CA   74  19.071  22.091  20.590  0.4507 -0.0831  0.0039
    6AIB    CB1   75  19.030  22.059  20.447  0.6375 -0.0520  0.2915
    6AIB   HB11   76  18.960  21.972  20.453 -0.5148  0.7419 -0.9391
    6AIB   HB12   77  19.112  22.029  20.378 -0.6885  0.3904 -1.5418
    6AIB   HB13   78  18.974  22.142  20.401  2.6567  0.9365 -0.5128
    6AIB    CB2   79  18.943  22.069  20.676  0.8190 -0.5793 -0.5037
    6AIB   HB21   80  18.974  22.069  20.783  0.6787  0.9476 -0.4397
    6AIB   HB22   81  18.892  21.972  20.654 -1.6039  0.7471 -1.2218
    6AIB   HB23   82  18.868  22.150  20.663  2.7182  2.0646  3.0875
    6AIB      C   83  19.191  22.005  20.642 -0.2880  0.2378  0.7985
    6AIB      O   84  19.185  21.923  20.735  0.3114 -0.5668 -0.1718
    7AIB      N   85  19.310  22.020  20.573  0.5191 -0.1401 -0.7520
    7AIB     HN   86  19.320  22.096  20.509  0.7001 -1.1267 -1.9246
    7AIB     CA   87  19.438  21.960  20.599  0.2908 -0.1072 -0.1866
    7AIB    CB1   88  19.536  22.024  20.506  0.3419  0.0605  0.5500
    7AIB   HB11   89  19.632  21.968  20.506 -0.9433 -2.3226  0.0413
    7AIB   HB12   90  19.555  22.125  20.547  1.2582  0.1361 -0.0393
    7AIB   HB13   91  19.505  22.022  20.399 -1.0362  1.5723  0.8860
    7AIB    CB2   92  19.432  21.813  20.551  0.4458 -0.0038 -0.3494
    7AIB   HB21   93  19.511  21.749  20.596  1.4181  2.1128  1.1227
    7AIB   HB22   94  19.431  21.811  20.440 -1.3125  3.0720 -0.4879
    7AIB   HB23   95  19.336  21.772  20.590  0.4250 -0.1713 -0.5576
    7AIB      C   96  19.479  21.967  20.755 -0.0833  0.2712  0.0390
    7AIB      O   97  19.488  21.867  20.821  0.3280 -0.3824  0.8181
    8AIB      N   98  19.484  22.089  20.815  0.3152  0.1727  0.5581
    8AIB     HN   99  19.456  22.173  20.768 -0.1205 -0.1837  0.1698
    8AIB     CA  100  19.537  22.120  20.944 -0.3414 -1.3053 -0.4533
    8AIB    CB1  101  19.511  22.273  20.959 -0.0663  0.5330  0.3535
    8AIB   HB11  102  19.542  22.293  21.064  1.5206  1.0108 -0.1891
    8AIB   HB12  103  19.412  22.319  20.938  0.7318  2.3796  0.3484
    8AIB   HB13  104  19.575  22.329  20.888 -1.7188  1.4696 -0.4390
    8AIB    CB2  105  19.685  22.101  20.946 -0.8501  0.1059  0.0465
    8AIB   HB21  106  19.747  22.168  21.010 -0.5931  0.3742 -0.4819
    8AIB   HB22  107  19.733  22.108  20.846 -1.1963  0.3165 -0.1078
    8AIB   HB23  108  19.718  21.999  20.977  2.2978  0.8090 -0.6523
    8AIB      C  109  19.466  22.048  21.067 -0.2730 -0.3807  0.6071
    8AIB      O  110  19.533  21.981  21.148  0.6954 -0.6822 -0.4005
    9AIB      N  111  19.330  22.047  21.064  0.1885  1.0734  0.1363
    9AIB     HN  112  19.276  22.108  21.007  1.1635  1.6521 -0.1774
    9AIB     CA  113  19.247  21.960  21.144  0.0502  0.7284 -0.2904
    9AIB    CB1  114  19.101  21.973  21.089  0.1350  0.0018  0.4215
    9AIB   HB11  115  19.027  21.947  21.168  0.7956 -0.8917  0.7669
    9AIB   HB12  116  19.073  21.906  21.004  1.3016  2.6918 -2.2248
    9AIB   HB13  117  19.088  22.078  21.054  1.8783 -0.2007 -0.9857
    9AIB    CB2  118  19.245  21.995  21.292  0.2272  0.0020 -0.1356
    9AIB   HB21  119  19.222  22.102  21.310  0.0036 -0.3299  1.7668
    9AIB   HB22  120  19.345  21.969  21.330 -0.3017 -1.1565  0.5266
    9AIB   HB23  121  19.171  21.934  21.348  0.9937 -0.8602 -0.0357
    9AIB      C  122  19.278  21.812  21.131  0.1768  0.0441 -0.9322
    9AIB      O  123  19.270  21.736  21.224 -0.1294  0.0259 -0.2971
    9AIB     NT  124  19.324  21.766  21.013 -0.1642  0.6966 -0.0277
    9AIB    HNT  125  19.337  21.825  20.934  0.5815 -0.7969 -1.0787
    9AIB    CAT  126  19.370  21.629  21.001  0.6177 -0.4586  0.0997
    9AIB    HT1  127  19.320  21.555  21.067 -0.4750  0.0095 -0.1872
    9AIB    HT2  128  19.476  21.610  21.028  0.5771  0.0288  0.6267
    9AIB    HT3  129  19.365  21.603  20.893  0.7060 -0.3253  0.0644
  42.09246  42.09246  42.09246
