Protein
   32
    1ACE   HH31    1   8.823  10.589  11.147 -0.5199  0.7299  0.0466
    1ACE    CH3    2   8.796  10.485  11.128  1.5373  0.1549  0.0702
    1ACE   HH32    3   8.876  10.427  11.081 -1.0361 -2.9293 -0.8327
    1ACE   HH33    4   8.705  10.471  11.070  1.2769 -2.4213  0.9855
    1ACE      C    5   8.768  10.418  11.263  0.6062 -0.8139  0.4816
    1ACE      O    6   8.653  10.391  11.301  0.0028  0.3323  0.0606
    2ALA      N    7   8.878  10.394  11.332 -0.1368  0.5273  0.1424
    2ALA      H    8   8.969  10.425  11.300  1.2751 -2.1482  1.3060
    2ALA     CA    9   8.892  10.314  11.451  0.4973  0.4167  0.4940
    2ALA     HA   10   8.804  10.326  11.515 -0.7687 -2.0384 -0.6633
    2ALA     CB   11   8.894  10.169  11.405 -0.5946  0.7251 -0.1235
    2ALA    HB1   12   8.806  10.139  11.349 -1.2113  0.4383  0.9611
    2ALA    HB2   13   8.972  10.165  11.330  1.8412  0.9871  2.2466
    2ALA    HB3   14   8.902  10.092  11.482  1.5622 -1.5949 -2.5112
    2ALA      C   15   9.016  10.348  11.537 -0.8786 -0.6051  0.8145
    2ALA      O   16   9.128  10.387  11.490  0.2145  0.1266  0.6831
    3ALA      N   17   8.990  10.355  11.675  0.5671 -0.1561  0.7902
    3ALA      H   18   8.905  10.310  11.707  0.4972  0.1835  1.0833
    3ALA     CA   19   9.071  10.434  11.765 -0.6093  0.2403  0.1611
    3ALA     HA   20   9.168  10.445  11.716 -1.6633 -0.1604 -2.2037
    3ALA     CB   21   9.013  10.577  11.783 -0.1191  0.6231 -0.8015
    3ALA    HB1   22   9.082  10.619  11.855 -0.4244  0.8564 -0.6464
    3ALA    HB2   23   9.024  10.628  11.687  0.4643  0.7041 -0.6950
    3ALA    HB3   24   8.907  10.568  11.808  0.1569  0.2498  0.2728
    3ALA      C   25   9.081  10.361  11.899 -0.4259  0.1251  0.3824
    3ALA      O   26   9.047  10.408  12.006 -0.1352 -0.0206  0.1602
    4NME      N   27   9.141  10.240  11.893  0.1846  0.4472  0.2541
    4NME      H   28   9.185  10.215  11.805 -0.2063 -0.3204  0.2676
    4NME    CH3   29   9.134  10.133  11.987  0.0781  0.0717  0.3966
    4NME   HH31   30   9.204  10.157  12.068 -0.3757  0.0028  0.8155
    4NME   HH32   31   9.036  10.138  12.035 -0.5669 -0.3806 -0.8236
    4NME   HH33   32   9.161  10.037  11.943  2.5436  0.8447  0.0436
  20.99041  20.99041  20.99041
