Protein
   22
    1ACE   HH31    1   2.728  10.226   1.979 -0.2021 -1.3981  1.1209
    1ACE    CH3    2   2.757  10.197   1.878  0.1839  0.1352  0.7676
    1ACE   HH32    3   2.738  10.267   1.797 -0.5698  0.4373  1.1851
    1ACE   HH33    4   2.701  10.106   1.856  1.3510 -0.4623  0.1966
    1ACE      C    5   2.902  10.156   1.888  0.4601  0.5583  0.2760
    1ACE      O    6   2.941  10.040   1.889  0.0133 -0.2372  0.1846
    2ALA      N    7   2.986  10.255   1.894  0.1956  0.2978  0.6444
    2ALA      H    8   2.950  10.348   1.883 -1.5635 -0.5321 -1.2683
    2ALA     CA    9   3.131  10.247   1.884  0.3007 -0.4618 -0.6973
    2ALA     HA   10   3.145  10.208   1.784 -0.9305  0.9308 -1.4687
    2ALA     CB   11   3.186  10.394   1.883  0.2092  0.4648  0.0473
    2ALA    HB1   12   3.294  10.392   1.864 -0.0299 -3.1463 -1.7107
    2ALA    HB2   13   3.143  10.449   1.799  0.0864  1.3474  0.6811
    2ALA    HB3   14   3.166  10.444   1.977 -0.5218 -0.9351  0.6578
    2ALA      C   15   3.207  10.156   1.987 -0.2855  0.2593 -0.3708
    2ALA      O   16   3.334  10.174   1.990 -0.3869  0.0351  0.3447
    3NME      N   17   3.143  10.070   2.068  0.4981  0.0768  0.5177
    3NME      H   18   3.043  10.062   2.056  0.5170  0.2909  0.2070
    3NME    CH3   19   3.206   9.990   2.165  0.6179  0.4810 -0.0208
    3NME   HH31   20   3.183  10.019   2.267  1.8891 -1.1150  0.7800
    3NME   HH32   21   3.179   9.884   2.161 -0.2640  0.7015 -0.3240
    3NME   HH33   22   3.314   9.992   2.149  0.5441  0.7630 -0.5075
  10.72160  10.72160  10.72160
