Protein
   42
    1ACE   HH31    1   7.758   5.204   4.102  2.9994 -1.8985 -2.4581
    1ACE    CH3    2   7.672   5.143   4.074  0.3612  0.0125  0.7291
    1ACE   HH32    3   7.689   5.043   4.115 -1.0779 -0.6047 -0.1077
    1ACE   HH33    4   7.677   5.134   3.965 -1.3390  0.7912  0.5467
    1ACE      C    5   7.529   5.198   4.096  0.4021  0.8835  0.8512
    1ACE      O    6   7.464   5.162   4.187 -0.2400 -0.1035 -0.7150
    2ALA      N    7   7.485   5.293   4.014 -0.0926  0.3247 -0.5598
    2ALA      H    8   7.562   5.320   3.954  1.4663  1.6584  1.8763
    2ALA     CA    9   7.363   5.367   4.003 -0.1410  0.0090  0.2615
    2ALA     HA   10   7.382   5.471   4.028  0.9945  0.1522 -1.0047
    2ALA     CB   11   7.327   5.359   3.854  0.8143 -0.2934 -0.4085
    2ALA    HB1   12   7.253   5.433   3.823  0.9684  0.2244  0.4126
    2ALA    HB2   13   7.411   5.377   3.788 -1.1675 -0.8317 -3.2128
    2ALA    HB3   14   7.294   5.258   3.829  0.3389 -0.5666  1.1831
    2ALA      C   15   7.240   5.323   4.090  0.3282  0.3644  0.3941
    2ALA      O   16   7.213   5.390   4.188 -0.7506  0.1671  0.2799
    3ALA      N   17   7.170   5.216   4.056  0.0101  0.1135  0.7065
    3ALA      H   18   7.201   5.161   3.978 -2.0236 -0.4700  0.2524
    3ALA     CA   19   7.042   5.183   4.118  0.4765  0.2226  0.3270
    3ALA     HA   20   6.989   5.277   4.121 -0.7097 -0.2414 -2.6154
    3ALA     CB   21   6.972   5.075   4.029  0.1255  0.1209 -0.0399
    3ALA    HB1   22   6.995   5.091   3.923 -2.0456 -1.4148 -0.8089
    3ALA    HB2   23   6.996   4.973   4.058  0.0556  0.0526 -0.2250
    3ALA    HB3   24   6.865   5.091   4.037  0.2360  3.1573 -2.4253
    3ALA      C   25   7.049   5.132   4.267 -0.3869  0.5837 -0.4517
    3ALA      O   26   6.963   5.050   4.305 -0.1032  0.5884  0.3672
    4ALA      N   27   7.148   5.175   4.348  0.2050  0.1216 -0.2910
    4ALA      H   28   7.214   5.241   4.309  0.4967  0.2469  0.4074
    4ALA     CA   29   7.165   5.149   4.491  0.2055 -0.3146 -0.4787
    4ALA     HA   30   7.088   5.204   4.545  1.0050 -0.3141  0.7230
    4ALA     CB   31   7.145   5.006   4.535 -0.4070  1.1746  0.0441
    4ALA    HB1   32   7.160   4.991   4.642  0.2574  0.0357 -0.1861
    4ALA    HB2   33   7.042   4.978   4.514 -0.0863  1.1035 -1.5454
    4ALA    HB3   34   7.190   4.938   4.463 -2.9643 -0.3944 -0.2022
    4ALA      C   35   7.305   5.195   4.544 -0.3070  0.1705  0.0013
    4ALA      O   36   7.319   5.241   4.661  0.1717 -0.4331  0.1875
    5NME      N   37   7.406   5.191   4.457 -0.3923  0.2648  0.4418
    5NME      H   38   7.383   5.158   4.365 -1.2492 -0.6382  0.9578
    5NME    CH3   39   7.538   5.255   4.488 -0.5434 -0.0828  1.1101
    5NME   HH31   40   7.618   5.183   4.508 -0.3415 -0.3243 -0.4746
    5NME   HH32   41   7.578   5.312   4.404  2.5796 -1.5254  1.4447
    5NME   HH33   42   7.538   5.316   4.579  2.7130  2.0305 -0.1272
  20.91516  20.91516  20.91516
