Title
  129
    1AIB    CAY    1  18.806  21.771  20.715 -0.2678  0.4358  0.5943
    1AIB    HY1    2  18.786  21.733  20.612  0.6383  0.0543  0.5471
    1AIB    HY2    3  18.724  21.843  20.736 -0.1210  0.5030  0.9365
    1AIB    HY3    4  18.782  21.687  20.784  1.6648 -1.2382 -0.6402
    1AIB     CY    5  18.943  21.801  20.750 -0.0376  0.0715 -0.5445
    1AIB     OY    6  18.983  21.917  20.772 -0.0637 -0.0311  0.6277
    1AIB      N    7  19.028  21.696  20.759  0.4127 -0.2690 -0.0878
    1AIB     HN    8  18.993  21.608  20.729 -2.3945 -0.4358  3.1525
    1AIB     CA    9  19.163  21.693  20.813 -0.2351  0.0287  0.1504
    1AIB    CB1   10  19.218  21.541  20.809  0.5793 -0.1637  0.2452
    1AIB   HB11   11  19.155  21.459  20.851  0.6132  0.0685  0.7520
    1AIB   HB12   12  19.317  21.543  20.860  1.4260 -1.0377 -1.2745
    1AIB   HB13   13  19.234  21.505  20.705 -0.2430  0.3391 -0.0593
    1AIB    CB2   14  19.166  21.717  20.971  1.0495 -0.2257 -0.0650
    1AIB   HB21   15  19.157  21.825  20.993 -1.7556 -0.3820 -0.0603
    1AIB   HB22   16  19.245  21.664  21.029  1.3496 -1.2394 -1.3570
    1AIB   HB23   17  19.071  21.674  21.009  1.3752 -0.4243  0.5361
    1AIB      C   18  19.262  21.789  20.742 -0.1559 -0.1181 -0.2065
    1AIB      O   19  19.362  21.831  20.802 -0.4512  0.0196 -0.3243
    2AIB      N   20  19.242  21.818  20.611  0.0645  1.0645 -0.1018
    2AIB     HN   21  19.160  21.786  20.565 -1.6195  0.2683  3.1176
    2AIB     CA   22  19.332  21.899  20.529  0.9565 -0.4775  0.5344
    2AIB    CB1   23  19.247  21.932  20.405  0.1950 -0.3589 -0.1680
    2AIB   HB11   24  19.139  21.937  20.430  0.5351 -0.1754  1.3286
    2AIB   HB12   25  19.255  21.856  20.324 -0.6710  0.6987 -1.3118
    2AIB   HB13   26  19.286  22.025  20.360  1.7435 -0.9524 -0.1238
    2AIB    CB2   27  19.453  21.824  20.479  0.0903  0.7952 -0.5991
    2AIB   HB21   28  19.431  21.724  20.435  2.1343 -0.7102  1.5108
    2AIB   HB22   29  19.524  21.802  20.562 -0.3674 -0.7972 -0.5864
    2AIB   HB23   30  19.492  21.894  20.403  2.1708 -0.3185 -0.6396
    2AIB      C   31  19.366  22.034  20.602 -0.6363 -0.2573 -0.8987
    2AIB      O   32  19.485  22.068  20.626  1.0938 -0.2878 -0.3815
    3AIB      N   33  19.264  22.116  20.649  0.0397  0.3050 -0.0097
    3AIB     HN   34  19.172  22.081  20.632  0.7349 -0.9529 -1.3614
    3AIB     CA   35  19.266  22.245  20.714  0.5009  0.4673  0.6350
    3AIB    CB1   36  19.127  22.271  20.776  0.3759 -0.3939  0.2751
    3AIB   HB11   37  19.094  22.210  20.863  0.9653 -3.4255 -1.4769
    3AIB   HB12   38  19.052  22.245  20.698 -0.1600  0.1772  0.5945
    3AIB   HB13   39  19.127  22.381  20.788 -0.2459  0.0512 -2.8404
    3AIB    CB2   40  19.309  22.352  20.612 -0.7397 -0.4031  0.0351
    3AIB   HB21   41  19.303  22.451  20.662 -1.3925 -0.2057 -0.4150
    3AIB   HB22   42  19.233  22.358  20.531  1.0366  3.7096 -1.6110
    3AIB   HB23   43  19.412  22.338  20.574 -0.5465 -0.2497  0.4866
    3AIB      C   44  19.373  22.244  20.830 -0.2822 -0.1578  0.5586
    3AIB      O   45  19.461  22.327  20.838  0.1116  0.0753 -0.0391
    4AIB      N   46  19.357  22.138  20.921 -0.4131 -0.5606 -0.1701
    4AIB     HN   47  19.306  22.057  20.894 -0.0474 -0.9980  0.4314
    4AIB     CA   48  19.433  22.117  21.039 -0.0705 -0.0424 -0.8421
    4AIB    CB1   49  19.388  21.993  21.116  0.2595 -0.3774 -0.2270
    4AIB   HB11   50  19.454  21.995  21.206  1.0306  1.0194 -0.7954
    4AIB   HB12   51  19.399  21.893  21.068 -0.5921 -0.6851  0.2082
    4AIB   HB13   52  19.278  21.997  21.132 -0.1544 -3.4798 -1.4829
    4AIB    CB2   53  19.420  22.236  21.131  0.3110 -0.0048  0.3451
    4AIB   HB21   54  19.317  22.251  21.168  0.6390 -1.5900  2.0922
    4AIB   HB22   55  19.444  22.326  21.071 -0.7923 -0.7516 -1.2796
    4AIB   HB23   56  19.482  22.232  21.224  2.7664  0.4154 -1.1772
    4AIB      C   57  19.586  22.104  21.008  0.2642  0.0523 -0.2388
    4AIB      O   58  19.667  22.158  21.084 -0.3772 -0.1421  0.3716
    5AIB      N   59  19.624  22.040  20.901 -0.2459  0.3166  0.1508
    5AIB     HN   60  19.556  22.021  20.830 -0.4477  0.7873  0.2149
    5AIB     CA   61  19.757  22.012  20.870 -0.0777  0.1215 -0.2994
    5AIB    CB1   62  19.759  21.926  20.745  0.2586  1.1283  0.1862
    5AIB   HB11   63  19.858  21.875  20.741 -0.3470 -0.1214  0.8702
    5AIB   HB12   64  19.749  21.989  20.655 -1.1734  3.9606  2.1347
    5AIB   HB13   65  19.686  21.842  20.747  1.4691  0.0512  1.0753
    5AIB    CB2   66  19.830  21.933  20.982 -1.3220 -0.5895 -0.7315
    5AIB   HB21   67  19.821  21.967  21.087 -0.9101 -2.3748 -0.0871
    5AIB   HB22   68  19.937  21.923  20.953 -1.9011 -0.8149 -2.9734
    5AIB   HB23   69  19.779  21.835  20.990 -0.7787 -0.8386 -0.2257
    5AIB      C   70  19.845  22.135  20.823 -0.7198 -0.0298 -0.0425
    5AIB      O   71  19.967  22.125  20.811 -0.2292  0.1102 -0.3469
    6AIB      N   72  19.789  22.255  20.811 -1.5102  0.5685 -0.2612
    6AIB     HN   73  19.692  22.254  20.830 -1.1358 -2.1660  2.1915
    6AIB     CA   74  19.846  22.381  20.770 -0.3498 -0.3594 -0.1235
    6AIB    CB1   75  19.730  22.482  20.774  0.0384  0.0464 -0.5074
    6AIB   HB11   76  19.644  22.453  20.710 -0.0318 -1.3846  0.2008
    6AIB   HB12   77  19.769  22.583  20.749  1.1112 -0.1218  0.3914
    6AIB   HB13   78  19.694  22.492  20.878 -0.4204 -0.3408 -0.6268
    6AIB    CB2   79  19.902  22.362  20.627  0.2924 -0.6130  0.3250
    6AIB   HB21   80  19.979  22.439  20.607 -0.1128 -0.6310 -1.4763
    6AIB   HB22   81  19.826  22.372  20.547  1.0690  0.8520 -0.2702
    6AIB   HB23   82  19.946  22.261  20.612  1.0664 -0.0802 -1.1795
    6AIB      C   83  19.964  22.422  20.868 -0.2521  0.0344  0.0525
    6AIB      O   84  20.063  22.480  20.827 -0.6960  0.1799  0.4047
    7AIB      N   85  19.946  22.383  20.999 -0.5519  0.6506  0.7188
    7AIB     HN   86  19.864  22.329  21.017  0.7508 -1.9873 -0.5845
    7AIB     CA   87  20.035  22.412  21.104  0.5627 -0.5673  0.1965
    7AIB    CB1   88  19.960  22.356  21.227  0.1486  0.0889 -0.1286
    7AIB   HB11   89  19.947  22.248  21.209  2.3721 -0.0246 -1.3592
    7AIB   HB12   90  19.864  22.410  21.239  0.5991  0.7474  0.6318
    7AIB   HB13   91  20.025  22.368  21.317 -0.3595 -2.2375  0.6037
    7AIB    CB2   92  20.046  22.568  21.127 -0.1395 -0.0595 -0.1665
    7AIB   HB21   93  19.944  22.608  21.143 -0.9105 -0.7723 -2.6802
    7AIB   HB22   94  20.088  22.619  21.037  0.5954 -0.8701 -0.3057
    7AIB   HB23   95  20.098  22.587  21.223 -2.2521 -0.2970  1.0997
    7AIB      C   96  20.178  22.354  21.087  0.4268  0.6443 -0.2999
    7AIB      O   97  20.267  22.413  21.149  0.0424  0.1388 -0.0974
    8AIB      N   98  20.195  22.249  21.004  0.2780 -0.0752  0.0125
    8AIB     HN   99  20.125  22.208  20.946 -0.4234 -2.5083  2.3626
    8AIB     CA  100  20.320  22.186  20.987 -0.2138 -0.3514  0.1827
    8AIB    CB1  101  20.304  22.087  20.878 -0.0658 -0.0372 -0.0208
    8AIB   HB11  102  20.400  22.037  20.851 -1.1827 -2.9890  1.1138
    8AIB   HB12  103  20.252  22.136  20.793 -1.7968  0.4801  1.2637
    8AIB   HB13  104  20.239  22.007  20.920  2.2064 -1.8344  0.3010
    8AIB    CB2  105  20.345  22.100  21.113 -0.2269 -0.3778  0.4971
    8AIB   HB21  106  20.258  22.035  21.137  0.4825 -2.3810 -1.9873
    8AIB   HB22  107  20.370  22.167  21.198 -1.3015  0.8726 -0.1319
    8AIB   HB23  108  20.436  22.039  21.093  0.6017  0.7391  0.7347
    8AIB      C  109  20.433  22.278  20.958 -0.4408 -0.9810  0.4182
    8AIB      O  110  20.546  22.268  21.003 -0.1898  0.0055 -0.0928
    9AIB      N  111  20.408  22.379  20.866  0.2733  0.6001  0.8263
    9AIB     HN  112  20.313  22.386  20.835  1.2467  0.7981 -2.5482
    9AIB     CA  113  20.505  22.468  20.811  0.6748  0.0217 -0.0680
    9AIB    CB1  114  20.426  22.570  20.726  0.0657 -0.1264  0.7294
    9AIB   HB11  115  20.374  22.525  20.638  0.2708 -1.3712  1.2293
    9AIB   HB12  116  20.495  22.642  20.677  0.2851 -0.0446  1.1593
    9AIB   HB13  117  20.354  22.625  20.791  1.9466  3.2867  0.1615
    9AIB    CB2  118  20.586  22.376  20.716  0.0184 -0.4973  0.0272
    9AIB   HB21  119  20.656  22.449  20.669 -0.7713  0.7958  0.7957
    9AIB   HB22  120  20.514  22.334  20.642 -0.3011 -0.9928  0.6161
    9AIB   HB23  121  20.635  22.289  20.764 -1.4015 -2.2903 -1.6226
    9AIB      C  122  20.587  22.553  20.907  0.3440 -0.4668  0.3742
    9AIB      O  123  20.696  22.606  20.884  0.1144  0.2682 -0.0191
    9AIB     NT  124  20.523  22.579  21.020 -0.3745  0.1660 -0.6186
    9AIB    HNT  125  20.438  22.534  21.046  0.5553 -1.1127  0.3446
    9AIB    CAT  126  20.587  22.659  21.129  0.4651 -0.2649 -0.0761
    9AIB    HT1  127  20.674  22.597  21.160  0.5632  0.9770  2.3528
    9AIB    HT2  128  20.522  22.645  21.218 -1.1848 -0.2449 -1.2236
    9AIB    HT3  129  20.616  22.764  21.112 -0.8147  0.0267 -0.5635
  42.09246  42.09246  42.09246
