Protein
   32
    1ACE   HH31    1   2.490  18.819   1.878 -0.6322  0.0886 -0.1612
    1ACE    CH3    2   2.510  18.722   1.924 -0.2335 -0.0333 -0.5987
    1ACE   HH32    3   2.423  18.685   1.979 -0.3687  0.4968 -0.4523
    1ACE   HH33    4   2.590  18.731   1.997 -1.9972 -1.7473  1.6900
    1ACE      C    5   2.546  18.621   1.821  0.2283  0.4822  0.3820
    1ACE      O    6   2.657  18.570   1.832  0.5914 -0.9242  0.2059
    2ALA      N    7   2.467  18.606   1.718  0.4137 -0.2493  0.4768
    2ALA      H    8   2.383  18.661   1.730  0.6271 -0.3627  2.7488
    2ALA     CA    9   2.506  18.557   1.585 -0.4112 -0.1595  1.0484
    2ALA     HA   10   2.612  18.577   1.571 -0.7148  0.2153 -1.2394
    2ALA     CB   11   2.476  18.407   1.569  0.4303  0.0204 -0.1119
    2ALA    HB1   12   2.368  18.399   1.557  0.2599  2.1773 -0.4807
    2ALA    HB2   13   2.529  18.366   1.482 -1.5741 -0.3688 -1.2055
    2ALA    HB3   14   2.499  18.353   1.661 -2.6928  0.6364  1.1581
    2ALA      C   15   2.424  18.631   1.474  0.5095  0.8804 -0.4376
    2ALA      O   16   2.346  18.719   1.510 -0.1066  0.1945 -0.8626
    3ALA      N   17   2.426  18.589   1.350 -0.3894 -0.1848  0.6737
    3ALA      H   18   2.483  18.513   1.316 -1.3054  0.3918 -2.4660
    3ALA     CA   19   2.353  18.660   1.242  0.0321  0.2884  0.0933
    3ALA     HA   20   2.357  18.767   1.264 -2.0649  0.7614 -1.5690
    3ALA     CB   21   2.429  18.627   1.112 -0.4218 -0.3417  0.0863
    3ALA    HB1   22   2.536  18.622   1.131 -0.5737 -1.3098  0.7900
    3ALA    HB2   23   2.398  18.526   1.085 -1.1261 -0.2864  0.6563
    3ALA    HB3   24   2.407  18.706   1.040  1.3648 -0.0115 -0.1420
    3ALA      C   25   2.206  18.611   1.247  0.3455 -0.0251 -0.2137
    3ALA      O   26   2.169  18.515   1.181 -0.7165  0.1487 -0.4714
    4NME      N   27   2.121  18.690   1.307 -0.0459 -0.0269 -0.4046
    4NME      H   28   2.157  18.764   1.365 -0.4623 -0.9761  1.0956
    4NME    CH3   29   1.978  18.690   1.282 -0.0847  0.0703 -0.2426
    4NME   HH31   30   1.943  18.617   1.209  0.1747  0.6447 -0.9548
    4NME   HH32   31   1.930  18.672   1.379  3.1211 -0.0800  1.4606
    4NME   HH33   32   1.946  18.788   1.248  0.0494  0.3803  0.4797
  20.99041  20.99041  20.99041
