Protein
   42
    1ACE   HH31    1  13.122  20.605  15.427 -0.3985  1.1436  0.3781
    1ACE    CH3    2  13.030  20.568  15.471  0.0758 -0.1911  0.2888
    1ACE   HH32    3  12.983  20.509  15.393  1.5015  0.1263 -0.8372
    1ACE   HH33    4  12.970  20.655  15.499  0.8691  0.7036 -0.7336
    1ACE      C    5  13.066  20.487  15.599  0.5052  0.4491 -0.4629
    1ACE      O    6  13.088  20.548  15.705 -0.6382 -0.2237  0.5696
    2ALA      N    7  13.095  20.357  15.581  0.0147 -0.3619  0.1114
    2ALA      H    8  13.090  20.321  15.487  1.6999  0.6008 -0.3765
    2ALA     CA    9  13.154  20.275  15.685 -0.1364 -0.1112  0.0355
    2ALA     HA   10  13.115  20.314  15.780  0.5045 -0.1351  0.3202
    2ALA     CB   11  13.099  20.134  15.675 -0.3182  0.2586 -0.3016
    2ALA    HB1   12  13.152  20.073  15.748 -0.2701  0.1005 -0.4665
    2ALA    HB2   13  12.995  20.140  15.710  0.1011  3.8377  0.8640
    2ALA    HB3   14  13.119  20.086  15.580  2.7863  1.6096 -0.4376
    2ALA      C   15  13.308  20.306  15.683 -0.1421 -0.0501  0.1430
    2ALA      O   16  13.372  20.324  15.577 -0.2967 -0.1062  0.0708
    3ALA      N   17  13.378  20.292  15.795 -0.5599  0.0363  0.0047
    3ALA      H   18  13.476  20.311  15.777 -0.7134  0.7452 -0.1350
    3ALA     CA   19  13.327  20.267  15.931  0.0535 -0.5795  0.3182
    3ALA     HA   20  13.241  20.200  15.923 -0.4462 -0.3955  3.0424
    3ALA     CB   21  13.434  20.200  16.013 -0.7272 -0.3551  0.1191
    3ALA    HB1   22  13.399  20.195  16.116  2.5582 -0.6904  1.3062
    3ALA    HB2   23  13.436  20.102  15.964 -2.5764 -1.3174  1.7913
    3ALA    HB3   24  13.528  20.250  15.993 -0.8594 -0.4043 -0.6927
    3ALA      C   25  13.266  20.401  15.995  0.5856 -0.1153 -0.1752
    3ALA      O   26  13.200  20.391  16.100 -0.3515  0.0493  1.3528
    4ALA      N   27  13.274  20.519  15.926 -0.0831 -0.1972  0.3792
    4ALA      H   28  13.339  20.518  15.849 -1.1362 -2.4399 -0.5866
    4ALA     CA   29  13.210  20.651  15.960  0.1509  0.1792 -0.6695
    4ALA     HA   30  13.105  20.655  15.932 -0.0560  2.0621  0.2429
    4ALA     CB   31  13.232  20.684  16.110  0.0835  0.3887 -0.0015
    4ALA    HB1   32  13.204  20.788  16.127 -1.2367 -0.1904  1.6295
    4ALA    HB2   33  13.171  20.626  16.179 -0.2098  1.5779  0.7749
    4ALA    HB3   34  13.338  20.670  16.129  0.4100  1.4817 -0.8883
    4ALA      C   35  13.272  20.754  15.872 -0.6604 -0.4085 -0.2994
    4ALA      O   36  13.372  20.726  15.801 -0.5743  0.1271 -0.4319
    5NME      N   37  13.218  20.876  15.866  0.3469 -0.6384 -0.1057
    5NME      H   38  13.135  20.888  15.923  0.8419 -1.1740  0.7435
    5NME    CH3   39  13.280  20.992  15.805 -0.1263 -0.1668 -0.6580
    5NME   HH31   40  13.243  21.018  15.706 -1.4328 -0.6792 -0.3227
    5NME   HH32   41  13.274  21.081  15.867  0.4728 -1.4512  1.3647
    5NME   HH33   42  13.380  20.955  15.780 -1.7957 -4.6230 -1.7078
  20.91516  20.91516  20.91516
