Protein
   42
    1ACE   HH31    1  12.033   9.432  10.685 -1.0376  1.0814  0.6254
    1ACE    CH3    2  12.047   9.483  10.590  0.2723  0.2093  0.3279
    1ACE   HH32    3  11.954   9.486  10.533  0.1301  0.8266  0.5771
    1ACE   HH33    4  12.128   9.437  10.534  0.6785  1.2838 -0.0044
    1ACE      C    5  12.085   9.622  10.614  0.6951  0.1516 -1.6026
    1ACE      O    6  11.993   9.710  10.601 -0.2928 -0.2223 -0.0099
    2ALA      N    7  12.214   9.652  10.644  0.3965 -0.7295  1.3479
    2ALA      H    8  12.286   9.584  10.625 -0.0523 -0.6107 -1.1219
    2ALA     CA    9  12.258   9.793  10.651  0.3294 -0.0397  0.1578
    2ALA     HA   10  12.190   9.850  10.715 -0.8058 -0.2268 -0.8469
    2ALA     CB   11  12.394   9.795  10.720  1.2911 -0.6654  0.4557
    2ALA    HB1   12  12.384   9.764  10.824  0.2049 -1.0564  0.2407
    2ALA    HB2   13  12.458   9.726  10.664  0.4845  0.6619 -2.2662
    2ALA    HB3   14  12.428   9.899  10.719  0.8043 -0.4516  2.5344
    2ALA      C   15  12.257   9.857  10.509  0.2032 -0.1839  0.2284
    2ALA      O   16  12.285   9.793  10.406 -0.3197  0.2749  0.2930
    3ALA      N   17  12.225   9.986  10.490  0.5394  0.6949 -0.6745
    3ALA      H   18  12.224  10.015  10.393  0.0321 -0.5360 -1.0555
    3ALA     CA   19  12.158  10.082  10.576 -0.7964 -0.3734 -0.3736
    3ALA     HA   20  12.150  10.172  10.515 -1.5217 -1.0722 -1.3344
    3ALA     CB   21  12.008  10.053  10.597 -0.3337 -0.4808  0.1686
    3ALA    HB1   22  11.952  10.039  10.505  0.7127  0.1319 -0.5801
    3ALA    HB2   23  11.988   9.973  10.668  0.0650 -0.5770  0.1747
    3ALA    HB3   24  11.963  10.138  10.650 -1.1238 -2.4404  2.8015
    3ALA      C   25  12.238  10.113  10.705 -0.4965  1.2929  0.1702
    3ALA      O   26  12.184  10.094  10.816  0.0533  0.0385 -0.0069
    4ALA      N   27  12.368  10.158  10.683  0.0393 -0.1050 -0.2104
    4ALA      H   28  12.403  10.166  10.589  3.8285 -0.3742  1.0154
    4ALA     CA   29  12.469  10.196  10.782  0.1405 -0.5958 -0.0330
    4ALA     HA   30  12.475  10.115  10.855 -0.7334 -2.6091 -2.0532
    4ALA     CB   31  12.600  10.217  10.699 -0.0209 -0.3750 -0.7299
    4ALA    HB1   32  12.677  10.264  10.761  0.0906 -0.8985 -0.4703
    4ALA    HB2   33  12.635  10.117  10.673  1.6173 -0.2226  0.6631
    4ALA    HB3   34  12.587  10.281  10.612 -2.5926  0.8856  0.4454
    4ALA      C   35  12.438  10.334  10.848  0.7216 -0.5808 -0.1095
    4ALA      O   36  12.517  10.384  10.926  0.3267  0.0181 -0.5749
    5NME      N   37  12.327  10.408  10.810 -0.1727 -0.1188 -0.2340
    5NME      H   38  12.262  10.362  10.748  1.7319  0.5648 -2.8914
    5NME    CH3   39  12.274  10.525  10.880  0.1774  0.1264 -0.2519
    5NME   HH31   40  12.288  10.617  10.822 -0.3229  1.1748  1.2225
    5NME   HH32   41  12.165  10.518  10.879 -0.0491  2.1956  1.3328
    5NME   HH33   42  12.314  10.545  10.979 -1.4190  1.9036  0.0965
  20.91516  20.91516  20.91516
