Protein
   42
    1ACE   HH31    1   9.373   6.683  16.035  0.5818 -0.5802 -0.1697
    1ACE    CH3    2   9.443   6.731  16.103  0.0694 -0.4424  0.2690
    1ACE   HH32    3   9.387   6.810  16.152  1.3751  1.5869 -1.3266
    1ACE   HH33    4   9.519   6.775  16.039 -0.8907 -0.5013 -0.9485
    1ACE      C    5   9.510   6.651  16.210  0.4472 -0.2878  0.2754
    1ACE      O    6   9.488   6.678  16.329  0.1323 -0.1090 -0.0069
    2ALA      N    7   9.581   6.546  16.175 -0.5951  0.4591  1.0182
    2ALA      H    8   9.582   6.523  16.076  1.4366  1.2572  0.8046
    2ALA     CA    9   9.657   6.465  16.269  0.5378 -0.0914  0.5415
    2ALA     HA   10   9.605   6.463  16.365  0.8057 -3.7416  0.7563
    2ALA     CB   11   9.646   6.313  16.235  0.4258  0.9679 -0.0986
    2ALA    HB1   12   9.718   6.268  16.167 -1.8629 -1.1964 -1.2688
    2ALA    HB2   13   9.658   6.257  16.328  3.6411  0.5282 -0.6956
    2ALA    HB3   14   9.552   6.300  16.182  0.6315  0.4423 -0.3330
    2ALA      C   15   9.795   6.516  16.271  0.3541 -0.5983 -0.6311
    2ALA      O   16   9.857   6.513  16.165 -0.0742 -0.1704 -0.3798
    3ALA      N   17   9.850   6.561  16.384 -0.2218 -0.0648 -0.6246
    3ALA      H   18   9.941   6.604  16.373 -0.9873  1.3400 -1.9136
    3ALA     CA   19   9.788   6.578  16.515 -0.1398  0.4144 -0.4760
    3ALA     HA   20   9.684   6.611  16.510  0.3556  2.0794 -0.3541
    3ALA     CB   21   9.804   6.452  16.593 -0.5033 -0.3067  0.1111
    3ALA    HB1   22   9.747   6.460  16.685  0.9881 -0.9883  1.1358
    3ALA    HB2   23   9.768   6.367  16.534  0.8172 -0.2833 -0.7768
    3ALA    HB3   24   9.910   6.450  16.618 -0.4721  1.3615  0.2131
    3ALA      C   25   9.867   6.683  16.595 -0.1069 -0.2984  0.3005
    3ALA      O   26   9.983   6.708  16.571  0.8537 -0.1955 -0.7018
    4ALA      N   27   9.798   6.771  16.663  0.1143 -0.0468 -0.4168
    4ALA      H   28   9.698   6.755  16.662 -0.0024  0.5689 -2.0917
    4ALA     CA   29   9.852   6.896  16.720  1.1500  0.5787 -0.4261
    4ALA     HA   30   9.945   6.922  16.670  2.9521 -1.7620  1.4223
    4ALA     CB   31   9.747   7.000  16.698 -0.4857 -0.1355  0.4907
    4ALA    HB1   32   9.799   7.095  16.689  1.2839 -1.0170  0.9547
    4ALA    HB2   33   9.694   6.994  16.603  1.8764  1.2750 -1.0041
    4ALA    HB3   34   9.688   6.993  16.790  0.0246 -1.2170  0.7566
    4ALA      C   35   9.893   6.875  16.867  1.0007  0.5439 -0.5395
    4ALA      O   36   9.808   6.831  16.954  0.3918  0.2306  0.3460
    5NME      N   37  10.016   6.898  16.908 -0.2594  0.2260 -0.1712
    5NME      H   38  10.082   6.900  16.832 -1.4807  0.0894 -1.2631
    5NME    CH3   39  10.065   6.868  17.035 -0.0480 -0.5825 -0.3263
    5NME   HH31   40  10.163   6.913  17.050 -1.1033  1.5047  0.7759
    5NME   HH32   41   9.995   6.904  17.110  1.0717 -0.2647  0.5898
    5NME   HH33   42  10.073   6.759  17.044  0.1212 -0.6407 -1.1130
  20.91516  20.91516  20.91516
