Protein
   42
    1ACE   HH31    1  14.398  10.615  14.720 -0.9671  0.8896  0.4155
    1ACE    CH3    2  14.406  10.587  14.615  0.2280  0.9234  0.4843
    1ACE   HH32    3  14.360  10.490  14.599  1.3763  0.1792  1.5764
    1ACE   HH33    4  14.509  10.591  14.581 -0.2705 -1.4095 -1.5491
    1ACE      C    5  14.324  10.679  14.527  0.5670  0.1062 -0.0379
    1ACE      O    6  14.345  10.696  14.409 -0.2846 -0.3090  0.1411
    2ALA      N    7  14.212  10.731  14.581  0.1034  0.4288  0.1527
    2ALA      H    8  14.178  10.691  14.668  0.7173 -1.2593 -0.3470
    2ALA     CA    9  14.120  10.822  14.508 -0.3732 -0.2330  0.0767
    2ALA     HA   10  14.140  10.809  14.402  2.7519  2.4500  0.1841
    2ALA     CB   11  13.977  10.791  14.530  0.8048  0.2498 -0.1054
    2ALA    HB1   12  13.947  10.811  14.633  1.3955  0.1832  0.0861
    2ALA    HB2   13  13.919  10.866  14.477  1.1082 -0.8404 -2.0768
    2ALA    HB3   14  13.949  10.691  14.497  1.8644 -0.1777  0.2421
    2ALA      C   15  14.147  10.977  14.535 -0.0500  0.5848 -0.0153
    2ALA      O   16  14.145  11.014  14.650  0.5097  0.0361  0.1640
    3ALA      N   17  14.170  11.067  14.439  0.0729  0.1979  0.4010
    3ALA      H   18  14.188  11.161  14.473 -1.2798  1.1505 -1.3365
    3ALA     CA   19  14.221  11.044  14.301 -0.0590 -0.2109  0.4751
    3ALA     HA   20  14.181  10.950  14.264  1.9907 -0.4193 -1.4515
    3ALA     CB   21  14.179  11.145  14.198  0.4048 -0.0669 -0.1904
    3ALA    HB1   22  14.197  11.105  14.098  3.5741  1.4000 -0.3176
    3ALA    HB2   23  14.075  11.169  14.218  0.8902  1.7648  0.3332
    3ALA    HB3   24  14.241  11.234  14.212  0.5727 -0.0322 -1.0756
    3ALA      C   25  14.375  11.028  14.294 -0.1205  0.4138  0.3233
    3ALA      O   26  14.441  11.105  14.364  0.5992  0.0753  0.7477
    4ALA      N   27  14.437  10.942  14.211  0.2371  0.4223 -0.1878
    4ALA      H   28  14.373  10.887  14.155 -0.7202  1.1049  0.2098
    4ALA     CA   29  14.583  10.920  14.189 -0.3199  0.2453  0.4247
    4ALA     HA   30  14.589  10.841  14.115  1.9358 -1.8192  2.6267
    4ALA     CB   31  14.643  11.046  14.125  0.1650  0.2938  0.3892
    4ALA    HB1   32  14.744  11.019  14.095 -0.7887 -1.6569 -1.2205
    4ALA    HB2   33  14.591  11.074  14.034  0.6617 -2.5362 -0.8798
    4ALA    HB3   34  14.645  11.130  14.195 -1.8638  1.3616 -0.7585
    4ALA      C   35  14.667  10.877  14.314  0.1355  0.5653  0.3205
    4ALA      O   36  14.767  10.806  14.289 -0.1864  0.2526 -0.0479
    5NME      N   37  14.628  10.907  14.436  0.0124  0.4326 -0.0382
    5NME      H   38  14.548  10.967  14.448  0.7358  1.1344  1.5911
    5NME    CH3   39  14.700  10.879  14.560 -1.0175  0.0318 -0.6595
    5NME   HH31   40  14.803  10.846  14.548 -0.7428  0.5619  0.1801
    5NME   HH32   41  14.704  10.965  14.627 -4.0169 -1.5919  1.9333
    5NME   HH33   42  14.659  10.790  14.608  0.1719  0.4139  1.1380
  20.91516  20.91516  20.91516
