Protein
   42
    1ACE   HH31    1   7.594   5.401  11.874 -0.5773 -0.9333 -0.6954
    1ACE    CH3    2   7.630   5.360  11.968 -0.9772 -0.4944 -0.3413
    1ACE   HH32    3   7.637   5.441  12.040 -0.9009  1.7261 -2.7216
    1ACE   HH33    4   7.719   5.297  11.970 -1.8933 -1.8109  0.9325
    1ACE      C    5   7.534   5.256  12.015 -0.1791  0.4777  0.3658
    1ACE      O    6   7.571   5.143  12.038  0.2034  0.5088 -0.7125
    2ALA      N    7   7.404   5.285  12.015  0.5057 -0.1025 -0.5544
    2ALA      H    8   7.381   5.379  11.987  0.6755  0.5639  1.4328
    2ALA     CA    9   7.302   5.181  12.021  0.0651 -0.3081  0.2064
    2ALA     HA   10   7.307   5.134  12.119 -0.1871 -0.7678 -0.0003
    2ALA     CB   11   7.171   5.265  12.019  0.2590 -0.9435 -0.6739
    2ALA    HB1   12   7.088   5.197  12.041 -0.8452  0.2013 -1.1413
    2ALA    HB2   13   7.187   5.342  12.095 -0.7140 -0.4040 -0.9719
    2ALA    HB3   14   7.163   5.310  11.920  1.1535 -1.6241 -1.0763
    2ALA      C   15   7.300   5.080  11.913 -1.0891  0.6605 -0.0675
    2ALA      O   16   7.249   4.969  11.933  0.7535  0.2487  0.0309
    3ALA      N   17   7.372   5.110  11.805 -0.0054  0.4066 -0.2944
    3ALA      H   18   7.403   5.206  11.807 -0.4901  0.5612 -0.1598
    3ALA     CA   19   7.434   5.011  11.712  0.6212  0.1271 -0.2801
    3ALA     HA   20   7.358   4.973  11.644  2.1817  0.0458 -2.0923
    3ALA     CB   21   7.547   5.083  11.639  0.4325  0.4219  0.0612
    3ALA    HB1   22   7.618   5.126  11.708  0.6478 -0.2862  0.2843
    3ALA    HB2   23   7.595   5.012  11.571 -1.2290  0.7141 -1.5137
    3ALA    HB3   24   7.507   5.158  11.571  1.5981  2.2672  1.3345
    3ALA      C   25   7.479   4.880  11.778 -0.4743  0.4440  0.2375
    3ALA      O   26   7.470   4.776  11.710 -0.2002 -0.1797 -0.6534
    4ALA      N   27   7.529   4.881  11.906 -0.5068 -0.5444 -0.1566
    4ALA      H   28   7.537   4.971  11.951 -0.7050 -0.2914 -0.6210
    4ALA     CA   29   7.560   4.766  11.996 -0.4060 -0.1596  0.2382
    4ALA     HA   30   7.650   4.724  11.951  0.4280 -1.0499  2.6047
    4ALA     CB   31   7.589   4.818  12.137  0.4134 -0.5824  0.0114
    4ALA    HB1   32   7.683   4.874  12.133  0.3662 -0.4557  0.5233
    4ALA    HB2   33   7.508   4.886  12.166  1.2581  1.9831 -3.0914
    4ALA    HB3   34   7.604   4.736  12.207  1.1388 -1.3617 -1.0301
    4ALA      C   35   7.455   4.656  11.989 -0.3626  0.8293  0.0835
    4ALA      O   36   7.491   4.538  12.018 -1.2154 -0.3172  0.1050
    5NME      N   37   7.327   4.689  11.963  0.4471  0.0045 -0.3240
    5NME      H   38   7.306   4.787  11.950 -1.2313 -0.1204  1.0388
    5NME    CH3   39   7.220   4.598  11.935  0.2715  0.4244  0.5752
    5NME   HH31   40   7.162   4.580  12.025 -0.2063 -0.5070  0.1089
    5NME   HH32   41   7.150   4.633  11.859 -1.2292 -0.2308  1.6184
    5NME   HH33   42   7.256   4.502  11.898 -1.6282 -0.4560  0.8797
  20.91516  20.91516  20.91516
