Protein
   42
    1ACE   HH31    1   8.896   9.277   5.958  0.4031 -0.0109  0.9953
    1ACE    CH3    2   8.877   9.384   5.950  0.2508 -0.0720  0.5094
    1ACE   HH32    3   8.879   9.417   5.846 -0.1978  0.9943  0.8294
    1ACE   HH33    4   8.964   9.428   5.997 -0.3211  0.2077  1.3258
    1ACE      C    5   8.764   9.430   6.034  0.5308 -0.0528  0.6896
    1ACE      O    6   8.669   9.483   5.983  0.3948 -0.3126 -0.8946
    2ALA      N    7   8.786   9.413   6.162  0.7264  0.0162  0.2150
    2ALA      H    8   8.874   9.371   6.191  0.3659 -1.8431 -1.2090
    2ALA     CA    9   8.707   9.436   6.283 -0.1482 -0.0212 -0.3772
    2ALA     HA   10   8.714   9.540   6.313  0.0564  0.0460 -0.6550
    2ALA     CB   11   8.555   9.409   6.262 -0.4165 -0.3687 -0.1891
    2ALA    HB1   12   8.505   9.409   6.359  0.4288 -0.4289  0.2529
    2ALA    HB2   13   8.502   9.483   6.201 -0.9816 -1.0640 -0.5555
    2ALA    HB3   14   8.555   9.315   6.207 -0.9939  0.2183 -1.2187
    2ALA      C   15   8.760   9.343   6.394 -0.8891  0.7406  0.4892
    2ALA      O   16   8.837   9.252   6.369  0.3023 -0.4107  0.4192
    3ALA      N   17   8.706   9.361   6.516 -0.5554 -0.3879 -0.7832
    3ALA      H   18   8.631   9.428   6.530  0.8124  1.1491 -0.3912
    3ALA     CA   19   8.726   9.277   6.637 -0.4734  0.1348  0.0086
    3ALA     HA   20   8.751   9.179   6.596 -2.0914 -0.7675  1.0976
    3ALA     CB   21   8.841   9.332   6.717  0.6729  0.4028 -0.1127
    3ALA    HB1   22   8.851   9.280   6.812 -0.8088  0.1463 -0.0817
    3ALA    HB2   23   8.932   9.316   6.658  0.4136  0.6975 -0.5998
    3ALA    HB3   24   8.827   9.440   6.726  1.4620  0.4599  0.5689
    3ALA      C   25   8.597   9.262   6.716  0.0431 -0.3536  0.3817
    3ALA      O   26   8.497   9.330   6.679 -0.3919 -0.1602  0.4227
    4ALA      N   27   8.590   9.181   6.819  0.0482  0.2052  0.1449
    4ALA      H   28   8.665   9.122   6.852 -1.7908 -2.0009  0.6436
    4ALA     CA   29   8.472   9.157   6.907 -0.5876  0.2297  0.5704
    4ALA     HA   30   8.392   9.222   6.873 -1.0487  1.9812  4.4603
    4ALA     CB   31   8.431   9.013   6.893 -0.6022  0.3140  0.4080
    4ALA    HB1   32   8.324   9.008   6.914 -0.5028 -0.1058  0.8561
    4ALA    HB2   33   8.458   8.970   6.797 -1.2449  1.7989 -0.4653
    4ALA    HB3   34   8.477   8.955   6.973 -0.3416  0.4314  0.3422
    4ALA      C   35   8.493   9.210   7.048 -0.3806  0.3099 -0.6336
    4ALA      O   36   8.600   9.251   7.092 -0.0620 -0.1691  0.1381
    5NME      N   37   8.390   9.195   7.129  0.7773  0.2250  0.4977
    5NME      H   38   8.305   9.151   7.098  1.0155 -0.6401  1.0175
    5NME    CH3   39   8.403   9.231   7.270 -0.3803 -0.2680 -0.6643
    5NME   HH31   40   8.428   9.337   7.270  1.4865 -0.6684 -2.1944
    5NME   HH32   41   8.318   9.204   7.334  1.3561 -0.3017  1.7349
    5NME   HH33   42   8.495   9.185   7.306 -0.6263 -1.0985 -1.0596
  20.91516  20.91516  20.91516
