Protein
   42
    1ACE   HH31    1   6.483  13.671  14.263  1.4244 -0.7127  0.8856
    1ACE    CH3    2   6.531  13.678  14.166  0.1057  0.5046  0.2810
    1ACE   HH32    3   6.488  13.608  14.094 -1.3429  0.8159  0.7939
    1ACE   HH33    4   6.639  13.669  14.175  0.1184 -0.0071 -0.2667
    1ACE      C    5   6.496  13.804  14.090 -0.7275 -0.0892  0.6663
    1ACE      O    6   6.522  13.910  14.142 -0.1614  0.0492 -0.1128
    2ALA      N    7   6.430  13.793  13.971 -0.2317 -0.6225  0.1332
    2ALA      H    8   6.433  13.702  13.927 -2.2986 -0.2939 -0.8001
    2ALA     CA    9   6.358  13.905  13.911 -0.3127 -0.0632 -0.4228
    2ALA     HA   10   6.338  13.872  13.809  1.0235 -2.1393 -0.0924
    2ALA     CB   11   6.210  13.915  13.966  0.1036  0.2631 -0.1521
    2ALA    HB1   12   6.167  13.816  13.954 -0.2839  0.4865 -0.6751
    2ALA    HB2   13   6.210  13.951  14.069 -1.1414  0.8436 -0.3402
    2ALA    HB3   14   6.155  13.985  13.903 -1.1172 -1.7576 -1.4452
    2ALA      C   15   6.427  14.036  13.875 -0.4107 -0.3261  0.3033
    2ALA      O   16   6.367  14.137  13.886  0.0423 -0.1200  0.6227
    3ALA      N   17   6.558  14.043  13.851 -0.2093 -0.3541 -0.2889
    3ALA      H   18   6.595  14.136  13.840 -1.9448  0.2397 -1.6283
    3ALA     CA   19   6.639  13.933  13.804 -0.8143  0.0061  0.5392
    3ALA     HA   20   6.578  13.845  13.783  0.4485 -0.4125 -1.6595
    3ALA     CB   21   6.685  13.960  13.655  0.2581  0.4451  0.2822
    3ALA    HB1   22   6.740  13.875  13.614 -1.3483 -1.1572  1.2559
    3ALA    HB2   23   6.592  13.971  13.599  0.9801  0.1398 -1.0088
    3ALA    HB3   24   6.744  14.051  13.651 -2.2616  2.1251 -1.8341
    3ALA      C   25   6.764  13.904  13.899 -0.9246 -0.5067  0.4573
    3ALA      O   26   6.825  13.797  13.877 -0.1594 -0.4803  0.0555
    4ALA      N   27   6.806  13.996  13.994  0.2613  0.1872 -0.2121
    4ALA      H   28   6.743  14.073  14.011 -0.5346 -0.3467 -0.6673
    4ALA     CA   29   6.922  13.963  14.080  0.1626 -0.4715 -0.2017
    4ALA     HA   30   6.951  13.860  14.059 -0.0314 -0.4832 -0.4154
    4ALA     CB   31   7.031  14.064  14.034 -0.2613 -0.6972  0.8082
    4ALA    HB1   32   7.128  14.059  14.084  0.2358  1.9180  0.2583
    4ALA    HB2   33   7.059  14.050  13.930  0.7733 -0.1088  0.9948
    4ALA    HB3   34   6.986  14.163  14.041  2.0029  0.5435 -0.7031
    4ALA      C   35   6.886  13.979  14.225  0.0003  0.4931 -0.8029
    4ALA      O   36   6.977  13.999  14.306  0.2378 -0.1280  0.1003
    5NME      N   37   6.758  13.987  14.266  0.3313 -0.7909  0.4246
    5NME      H   38   6.685  13.953  14.206 -0.9565 -0.2163  1.6148
    5NME    CH3   39   6.715  14.016  14.398 -0.2035 -0.0689  0.8929
    5NME   HH31   40   6.759  14.107  14.437  1.6096  0.1409 -1.3892
    5NME   HH32   41   6.606  14.007  14.396 -0.3096 -0.5666 -3.8586
    5NME   HH33   42   6.763  13.944  14.465  1.1708  0.5792  0.6424
  20.91516  20.91516  20.91516
