Protein
   32
    1ACE   HH31    1   3.669   7.390   9.697 -0.5047  0.7111  1.9409
    1ACE    CH3    2   3.705   7.493   9.689  0.3008  0.3164 -0.6310
    1ACE   HH32    3   3.778   7.496   9.771 -1.1349 -0.4598  0.7227
    1ACE   HH33    4   3.630   7.567   9.716  0.1065  0.0982 -0.5610
    1ACE      C    5   3.764   7.526   9.556  0.7911  0.2957 -0.1432
    1ACE      O    6   3.737   7.454   9.463  0.3153  0.1927  0.5842
    2ALA      N    7   3.850   7.627   9.552  0.1286  0.0647  0.2103
    2ALA      H    8   3.863   7.682   9.636 -0.3706  1.0656 -0.3484
    2ALA     CA    9   3.922   7.673   9.426  0.5091 -0.0078 -0.2160
    2ALA     HA   10   3.905   7.598   9.349  1.4996  0.4337 -0.8927
    2ALA     CB   11   3.840   7.796   9.378  0.0618  0.1841 -0.6912
    2ALA    HB1   12   3.862   7.813   9.273 -1.7684  1.4521 -0.9062
    2ALA    HB2   13   3.732   7.786   9.383  0.0130  0.7802 -0.4262
    2ALA    HB3   14   3.874   7.884   9.434 -0.7103 -0.6177  1.1248
    2ALA      C   15   4.075   7.707   9.441 -0.4135  0.1235 -0.4808
    2ALA      O   16   4.130   7.802   9.389  0.0327 -0.1477 -0.1038
    3ALA      N   17   4.150   7.619   9.509  0.1330 -0.0690 -0.4983
    3ALA      H   18   4.102   7.533   9.533 -2.4316  1.1473 -0.9115
    3ALA     CA   19   4.291   7.633   9.550 -0.3296 -0.8208  0.1573
    3ALA     HA   20   4.310   7.740   9.552 -2.7700 -0.3523  1.0477
    3ALA     CB   21   4.301   7.582   9.699 -0.1407 -0.5353 -0.1974
    3ALA    HB1   22   4.403   7.557   9.726 -0.3684 -1.0310  0.2594
    3ALA    HB2   23   4.262   7.655   9.770 -1.1290 -0.6938 -0.5700
    3ALA    HB3   24   4.251   7.485   9.708  1.3789 -1.4329 -0.9289
    3ALA      C   25   4.377   7.551   9.447  0.2018 -0.4649  0.5883
    3ALA      O   26   4.466   7.480   9.489  0.1201 -0.1069 -0.3244
    4NME      N   27   4.338   7.551   9.314 -0.2261 -0.3564 -0.3358
    4NME      H   28   4.254   7.602   9.293  1.0277  2.6401  1.2423
    4NME    CH3   29   4.429   7.507   9.205 -0.2499  0.1322 -0.1241
    4NME   HH31   30   4.481   7.587   9.152 -0.5051  0.8831  0.7176
    4NME   HH32   31   4.512   7.453   9.249  0.0536  1.2587  0.7560
    4NME   HH33   32   4.372   7.447   9.134 -0.1822  0.9708 -0.9276
  20.99041  20.99041  20.99041
