Protein
   42
    1ACE   HH31    1  13.609   5.411   5.836  0.0634 -0.2007  0.0929
    1ACE    CH3    2  13.541   5.329   5.861 -0.2765  0.3617  1.1429
    1ACE   HH32    3  13.604   5.248   5.898  1.0961 -0.9480 -3.4654
    1ACE   HH33    4  13.490   5.299   5.770  1.8200 -0.4095  0.1488
    1ACE      C    5  13.456   5.384   5.973  0.6821  0.6537  0.2375
    1ACE      O    6  13.494   5.382   6.089  0.2024 -0.0478  0.4170
    2ALA      N    7  13.333   5.434   5.938 -0.5199  0.9030  0.3999
    2ALA      H    8  13.312   5.413   5.842 -0.6230 -0.3563  0.6832
    2ALA     CA    9  13.228   5.512   6.011  0.4126  0.4423 -0.5756
    2ALA     HA   10  13.203   5.589   5.938  3.1718  0.3185 -1.7739
    2ALA     CB   11  13.099   5.422   6.021 -0.1584  0.4782 -0.1778
    2ALA    HB1   12  13.091   5.361   5.931 -0.2208  0.5492 -0.2195
    2ALA    HB2   13  13.104   5.368   6.116  1.1855  1.2703  0.2232
    2ALA    HB3   14  13.015   5.491   6.025  0.3163  1.0265  1.4458
    2ALA      C   15  13.265   5.573   6.152 -0.4574 -0.3285 -0.4704
    2ALA      O   16  13.250   5.694   6.164 -0.0172  0.6788 -0.1709
    3ALA      N   17  13.292   5.489   6.255 -0.0602  0.4556 -0.0823
    3ALA      H   18  13.312   5.391   6.237 -1.6048  0.2555 -0.8890
    3ALA     CA   19  13.309   5.535   6.385 -0.3804  0.4949 -0.1049
    3ALA     HA   20  13.291   5.643   6.391 -2.0586  0.2174  0.1041
    3ALA     CB   21  13.203   5.464   6.476 -0.0846 -0.0621  0.2456
    3ALA    HB1   22  13.205   5.357   6.460 -1.1144 -0.2573  1.3129
    3ALA    HB2   23  13.226   5.483   6.581  0.3454 -2.1855  0.5643
    3ALA    HB3   24  13.103   5.494   6.446  0.1475  1.0211  0.5007
    3ALA      C   25  13.455   5.511   6.432  0.0441  0.5795 -0.5153
    3ALA      O   26  13.481   5.492   6.551 -0.4705 -0.3593 -0.2235
    4ALA      N   27  13.560   5.508   6.341 -0.1710 -0.4913  0.0100
    4ALA      H   28  13.543   5.497   6.242  1.1316 -0.9112 -0.1771
    4ALA     CA   29  13.701   5.506   6.389  0.3000  0.6027 -0.0880
    4ALA     HA   30  13.708   5.575   6.473 -0.8518 -1.9000  2.1992
    4ALA     CB   31  13.732   5.360   6.434 -0.0831 -0.0297 -0.2626
    4ALA    HB1   32  13.665   5.333   6.516  0.1179 -1.2869 -0.4905
    4ALA    HB2   33  13.711   5.290   6.353 -0.6531  0.4230 -0.5140
    4ALA    HB3   34  13.837   5.346   6.462 -0.1327 -3.1601 -1.2104
    4ALA      C   35  13.799   5.533   6.267 -0.0365  0.6557 -0.1888
    4ALA      O   36  13.914   5.563   6.288 -0.8340 -0.7682 -0.4961
    5NME      N   37  13.758   5.514   6.141 -0.9486 -0.4742 -1.0115
    5NME      H   38  13.675   5.459   6.124 -2.6658  1.2877  1.0677
    5NME    CH3   39  13.842   5.548   6.022  0.8378 -0.8193  0.2801
    5NME   HH31   40  13.786   5.546   5.929  0.2268  3.0610  0.3996
    5NME   HH32   41  13.864   5.655   6.029 -1.5391 -0.2373 -0.0586
    5NME   HH33   42  13.939   5.497   6.020  1.1182 -0.2768 -0.4604
  20.91516  20.91516  20.91516
