Protein
   32
    1ACE   HH31    1   6.484  14.641   8.688 -1.9737 -0.4749  0.5853
    1ACE    CH3    2   6.414  14.718   8.719 -1.0278  0.4870  0.3747
    1ACE   HH32    3   6.329  14.693   8.783 -2.6034  0.8808 -1.4815
    1ACE   HH33    4   6.370  14.772   8.635 -0.1726 -0.2726 -0.5817
    1ACE      C    5   6.487  14.812   8.812  0.2203 -0.5448 -0.0841
    1ACE      O    6   6.442  14.822   8.927  0.3864 -0.0434  0.6349
    2ALA      N    7   6.592  14.879   8.763  0.2063 -0.6276 -0.4631
    2ALA      H    8   6.613  14.865   8.665 -0.5028  1.0496 -0.8873
    2ALA     CA    9   6.677  14.959   8.849 -0.3611 -0.1148  0.6528
    2ALA     HA   10   6.610  15.023   8.907 -1.2767 -0.5340  0.0690
    2ALA     CB   11   6.756  14.869   8.947 -0.0630 -0.3338  0.4814
    2ALA    HB1   12   6.793  14.781   8.894 -0.0266 -0.2879  0.4318
    2ALA    HB2   13   6.847  14.922   8.975  0.1755 -0.1992 -0.5163
    2ALA    HB3   14   6.694  14.845   9.033 -0.6389 -1.1596 -0.1549
    2ALA      C   15   6.771  15.059   8.777  0.3250  0.4141 -0.6580
    2ALA      O   16   6.761  15.180   8.800 -0.6158  0.2651 -0.0669
    3ALA      N   17   6.854  15.001   8.689  0.1523 -0.2809 -0.5480
    3ALA      H   18   6.843  14.902   8.671  0.3511 -0.2289 -0.9844
    3ALA     CA   19   6.951  15.078   8.606 -0.1522 -0.2906 -0.8268
    3ALA     HA   20   6.905  15.175   8.590  0.0930  0.0181  0.2334
    3ALA     CB   21   7.079  15.069   8.690 -0.1308 -0.5632 -0.1121
    3ALA    HB1   22   7.109  14.967   8.716 -0.0395 -0.6414 -0.5048
    3ALA    HB2   23   7.169  15.109   8.642  0.8539 -0.1184  2.0168
    3ALA    HB3   24   7.077  15.131   8.779 -0.3508 -0.0269 -0.4824
    3ALA      C   25   6.977  15.017   8.471 -0.3863 -0.4784 -0.0163
    3ALA      O   26   6.975  14.897   8.457 -0.2011  0.5266 -0.3182
    4NME      N   27   6.990  15.097   8.365 -0.5229 -0.5401  0.5805
    4NME      H   28   6.987  15.197   8.377 -1.9124 -0.5413  0.4606
    4NME    CH3   29   7.036  15.037   8.231  0.3362  0.5494  0.3217
    4NME   HH31   30   7.107  15.101   8.178  0.0117  0.5648 -0.1253
    4NME   HH32   31   7.080  14.938   8.243  0.4999  0.7000  0.9927
    4NME   HH33   32   6.947  15.020   8.171  0.3663  2.9480 -0.5132
  20.99041  20.99041  20.99041
