Protein
   32
    1ACE   HH31    1   6.481  11.451   8.937 -2.1633 -0.6349 -1.3838
    1ACE    CH3    2   6.532  11.527   8.877  0.4303 -1.3005 -0.1531
    1ACE   HH32    3   6.609  11.585   8.929  0.3322 -0.0417 -1.3364
    1ACE   HH33    4   6.462  11.608   8.857  1.7092 -0.6492 -2.2850
    1ACE      C    5   6.578  11.471   8.742  0.2180  0.5270 -0.1040
    1ACE      O    6   6.551  11.531   8.637  0.1488 -0.1402  0.4438
    2ALA      N    7   6.666  11.369   8.742  0.1698  0.1537  0.0720
    2ALA      H    8   6.690  11.325   8.829 -0.2530 -0.8071 -0.2816
    2ALA     CA    9   6.717  11.311   8.621  0.4555  0.1763 -0.2009
    2ALA     HA   10   6.684  11.370   8.535 -0.3548  2.4490  1.5820
    2ALA     CB   11   6.874  11.304   8.624 -0.1040 -0.0586 -0.6397
    2ALA    HB1   12   6.914  11.300   8.523 -0.6665 -0.9409 -0.8288
    2ALA    HB2   13   6.923  11.394   8.662 -0.8031  1.0015 -2.1612
    2ALA    HB3   14   6.906  11.208   8.664 -0.1803 -1.2108 -3.1319
    2ALA      C   15   6.658  11.169   8.606  0.3634 -0.5657 -0.7544
    2ALA      O   16   6.611  11.110   8.707  0.1480 -0.2887  0.6653
    3ALA      N   17   6.646  11.126   8.479  0.1445  0.2611  0.1119
    3ALA      H   18   6.669  11.198   8.411  0.1267 -0.9649 -1.2316
    3ALA     CA   19   6.564  11.014   8.427 -0.7454 -0.4773 -0.4844
    3ALA     HA   20   6.593  11.008   8.322  0.7185  0.1008 -0.1407
    3ALA     CB   21   6.604  10.884   8.487  0.3087  0.5469 -0.5894
    3ALA    HB1   22   6.711  10.879   8.507  0.6911  0.6868 -2.4253
    3ALA    HB2   23   6.557  10.853   8.581  0.4147 -2.4532 -1.4293
    3ALA    HB3   24   6.589  10.807   8.412  0.3268  0.7743 -0.8261
    3ALA      C   25   6.420  11.064   8.426 -0.4234 -0.1347 -0.0864
    3ALA      O   26   6.384  11.130   8.323 -0.4363  0.1209 -0.3435
    4NME      N   27   6.336  11.038   8.528 -0.0392  0.0915 -0.5037
    4NME      H   28   6.376  11.004   8.615  0.1373  1.9695  0.2201
    4NME    CH3   29   6.196  11.074   8.530  0.3625 -0.1319  0.1489
    4NME   HH31   30   6.166  11.117   8.626 -0.1688 -0.9364  0.3548
    4NME   HH32   31   6.164  11.143   8.453 -0.2467  1.1905  1.5244
    4NME   HH33   32   6.140  10.983   8.511 -2.0569  1.0579  1.1857
  20.99041  20.99041  20.99041
