Protein
   42
    1ACE   HH31    1   1.542  12.101  18.769 -2.6847 -0.5261 -0.1571
    1ACE    CH3    2   1.522  12.206  18.748 -0.4521 -0.0432 -0.1020
    1ACE   HH32    3   1.452  12.215  18.665  1.0646 -0.3119 -1.4570
    1ACE   HH33    4   1.614  12.258  18.720  1.1050 -2.6942 -0.2253
    1ACE      C    5   1.486  12.266  18.879  0.2430  0.4767 -0.5352
    1ACE      O    6   1.374  12.300  18.901  0.2819  0.5519 -0.2719
    2ALA      N    7   1.578  12.278  18.979 -0.3827 -0.7777 -0.1881
    2ALA      H    8   1.670  12.239  18.965  0.3359  1.0177 -0.6793
    2ALA     CA    9   1.560  12.357  19.101  1.0088  0.7634  0.3595
    2ALA     HA   10   1.454  12.352  19.123  0.6411  0.5014 -1.2769
    2ALA     CB   11   1.639  12.290  19.222  0.4174  0.3293 -0.3031
    2ALA    HB1   12   1.628  12.182  19.221 -0.8577  0.4451 -1.0813
    2ALA    HB2   13   1.741  12.327  19.218  0.3637  0.3772 -1.3365
    2ALA    HB3   14   1.589  12.321  19.315 -0.2684  0.7422 -0.7982
    2ALA      C   15   1.595  12.507  19.087 -0.0815  0.3563 -0.0094
    2ALA      O   16   1.710  12.532  19.059  0.7639 -0.8064 -0.2057
    3ALA      N   17   1.508  12.605  19.079 -0.2524 -1.1407 -0.5130
    3ALA      H   18   1.554  12.693  19.063  0.1972 -1.1544  0.6275
    3ALA     CA   19   1.358  12.600  19.081  0.4507 -0.5584 -0.2056
    3ALA     HA   20   1.321  12.503  19.114 -3.0681  0.0566 -1.7992
    3ALA     CB   21   1.319  12.707  19.194 -0.0765  0.9458 -0.0246
    3ALA    HB1   22   1.219  12.686  19.233  0.0520  0.7001  0.1693
    3ALA    HB2   23   1.393  12.693  19.272  0.4919 -0.8704 -0.8187
    3ALA    HB3   24   1.325  12.806  19.147  0.2699  0.3226 -1.3450
    3ALA      C   25   1.286  12.622  18.944 -0.9223 -0.7337 -0.1911
    3ALA      O   26   1.167  12.641  18.942  0.5037 -0.0927  0.2293
    4ALA      N   27   1.359  12.619  18.836 -0.5356 -0.4938  0.4193
    4ALA      H   28   1.453  12.583  18.845 -0.4399 -0.1901  0.7008
    4ALA     CA   29   1.315  12.664  18.700  0.3261 -0.1368 -0.2018
    4ALA     HA   30   1.235  12.733  18.727  0.6598 -0.1140  0.7580
    4ALA     CB   31   1.442  12.721  18.631 -0.7199  0.9365 -0.2125
    4ALA    HB1   32   1.526  12.654  18.650 -1.6592 -0.4208 -0.7395
    4ALA    HB2   33   1.441  12.734  18.523  0.0766 -0.5563 -0.4249
    4ALA    HB3   34   1.465  12.821  18.665 -0.8116  1.8393 -2.6289
    4ALA      C   35   1.247  12.546  18.624 -0.2094  0.1750  0.6652
    4ALA      O   36   1.274  12.514  18.503  0.5927 -0.7814  0.0928
    5NME      N   37   1.165  12.468  18.700  0.1526 -0.5716 -0.3731
    5NME      H   38   1.139  12.506  18.790 -1.3741 -0.2889 -0.9072
    5NME    CH3   39   1.112  12.335  18.665 -0.0957  0.4106 -0.1947
    5NME   HH31   40   1.005  12.319  18.679 -0.0606 -1.4013 -1.7010
    5NME   HH32   41   1.145  12.307  18.565 -1.2463 -0.2052 -0.4190
    5NME   HH33   42   1.168  12.271  18.732 -1.5741  0.3421  1.0224
  20.91516  20.91516  20.91516
