Protein
   32
    1ACE   HH31    1   7.196   5.943  12.556 -1.7240 -0.2044  0.3280
    1ACE    CH3    2   7.181   5.933  12.448  0.1159  0.4539 -0.0245
    1ACE   HH32    3   7.267   5.879  12.407 -0.2650 -2.2919  2.4598
    1ACE   HH33    4   7.185   6.029  12.398 -1.1875  0.5135 -0.0398
    1ACE      C    5   7.050   5.857  12.428  0.0913  0.2027 -0.0978
    1ACE      O    6   6.977   5.870  12.333 -0.0350 -0.0710 -0.1487
    2ALA      N    7   7.032   5.758  12.512  0.1392  0.2128  0.1918
    2ALA      H    8   7.082   5.757  12.599 -1.4592 -2.4692  1.1907
    2ALA     CA    9   6.924   5.666  12.507  0.0523  0.2692 -0.1065
    2ALA     HA   10   6.843   5.696  12.441 -1.5557  0.5220  1.8719
    2ALA     CB   11   6.968   5.528  12.462 -0.0018 -0.1257 -0.4440
    2ALA    HB1   12   6.891   5.451  12.458 -0.1395  0.0556 -3.8086
    2ALA    HB2   13   7.002   5.539  12.359 -0.3304 -0.0355 -0.5465
    2ALA    HB3   14   7.048   5.489  12.525 -0.3522 -1.8966 -1.0322
    2ALA      C   15   6.860   5.670  12.642  0.3976  0.0243 -0.5014
    2ALA      O   16   6.925   5.667  12.749  0.0562 -0.3796 -0.5141
    3ALA      N   17   6.723   5.672  12.634 -0.1966  0.1111 -0.0237
    3ALA      H   18   6.682   5.682  12.543  2.5233 -0.7196 -1.4445
    3ALA     CA   19   6.634   5.686  12.748 -0.6173  0.1653  0.5753
    3ALA     HA   20   6.695   5.682  12.839  2.9462  0.6928 -1.5770
    3ALA     CB   21   6.561   5.818  12.738 -0.2410  0.7694 -0.1789
    3ALA    HB1   22   6.638   5.895  12.726  2.0840 -1.6458 -1.8079
    3ALA    HB2   23   6.498   5.822  12.648 -0.2725 -2.1604 -0.3362
    3ALA    HB3   24   6.503   5.831  12.830  2.5268 -0.6145  1.8787
    3ALA      C   25   6.544   5.560  12.746  0.0495 -0.0693 -0.1554
    3ALA      O   26   6.426   5.571  12.720  0.7611 -0.3222  0.0303
    4NME      N   27   6.591   5.445  12.795 -0.0103 -0.5975 -0.0029
    4NME      H   28   6.689   5.432  12.814 -0.0819 -2.7990 -0.8317
    4NME    CH3   29   6.518   5.321  12.801 -0.0302 -0.1685  0.1080
    4NME   HH31   30   6.478   5.310  12.901 -1.5497  1.2508 -0.3042
    4NME   HH32   31   6.432   5.319  12.734  0.1036 -1.0334 -0.0664
    4NME   HH33   32   6.581   5.237  12.770 -0.6896 -0.0925 -1.5637
  20.99041  20.99041  20.99041
