Protein
   42
    1ACE   HH31    1   8.855   6.748   4.351 -1.0547 -0.4202  0.8796
    1ACE    CH3    2   8.808   6.838   4.311 -0.0981 -0.3858 -0.2067
    1ACE   HH32    3   8.701   6.836   4.330  0.1557 -0.4068  1.3250
    1ACE   HH33    4   8.838   6.853   4.207 -1.0825 -0.8405 -0.5648
    1ACE      C    5   8.852   6.954   4.393  0.1405  1.0855 -0.0384
    1ACE      O    6   8.905   7.056   4.340  0.4235 -0.1291 -0.2467
    2ALA      N    7   8.829   6.930   4.523  0.1070  0.1004 -1.2701
    2ALA      H    8   8.772   6.853   4.554  1.9718 -0.3623  1.2132
    2ALA     CA    9   8.867   7.024   4.633  0.5238  0.4198 -0.4584
    2ALA     HA   10   8.971   7.054   4.625  0.8862 -0.7004 -0.2514
    2ALA     CB   11   8.782   7.154   4.625 -0.5719 -0.4662 -0.3741
    2ALA    HB1   12   8.795   7.215   4.535  0.4339 -0.3224 -0.1395
    2ALA    HB2   13   8.676   7.132   4.637 -0.9393  0.5841 -1.4296
    2ALA    HB3   14   8.809   7.215   4.711 -0.7827 -1.9206  0.7571
    2ALA      C   15   8.842   6.956   4.776  0.3396 -0.2468  1.1594
    2ALA      O   16   8.778   6.851   4.771 -0.3978  0.0287 -0.0823
    3ALA      N   17   8.873   7.011   4.894 -0.2882 -0.1833 -0.5223
    3ALA      H   18   8.935   7.091   4.898  1.1745 -1.3198  1.4637
    3ALA     CA   19   8.847   6.949   5.026 -0.1217  0.0003 -0.9060
    3ALA     HA   20   8.740   6.931   5.039 -0.5437  2.5141 -0.2783
    3ALA     CB   21   8.911   6.812   5.026 -0.4916  0.0505 -0.6005
    3ALA    HB1   22   8.875   6.741   4.952 -0.7210 -1.7185  1.0867
    3ALA    HB2   23   9.017   6.824   5.003 -0.7087  1.1198 -1.1027
    3ALA    HB3   24   8.903   6.766   5.125  0.4906 -0.5533 -0.7785
    3ALA      C   25   8.890   7.038   5.146 -0.2076  0.7332 -0.7643
    3ALA      O   26   8.925   7.149   5.120  0.1113 -0.1292 -0.0275
    4ALA      N   27   8.869   6.982   5.270 -0.2228  0.6064 -0.4262
    4ALA      H   28   8.824   6.892   5.269 -0.2555  0.6249 -0.4934
    4ALA     CA   29   8.890   7.036   5.409 -0.0993  0.0929 -0.2722
    4ALA     HA   30   8.998   7.032   5.426 -0.0046 -1.2678 -1.0256
    4ALA     CB   31   8.844   7.181   5.421 -0.6742 -0.5053  0.5235
    4ALA    HB1   32   8.741   7.191   5.384 -0.6736 -0.0088  0.6622
    4ALA    HB2   33   8.843   7.218   5.523 -0.1814 -1.0182  0.7244
    4ALA    HB3   34   8.914   7.246   5.369 -0.5918 -1.4461 -0.5962
    4ALA      C   35   8.816   6.945   5.505 -1.0181  0.3911  0.4051
    4ALA      O   36   8.717   6.882   5.468  0.3630  0.0879 -0.0295
    5NME      N   37   8.868   6.936   5.627 -0.3176  0.1299 -0.6068
    5NME      H   38   8.952   6.988   5.649 -0.9796  0.8700  0.2616
    5NME    CH3   39   8.816   6.857   5.733 -0.1873 -0.3584 -0.3612
    5NME   HH31   40   8.844   6.752   5.723 -0.4399 -0.7985  2.4896
    5NME   HH32   41   8.838   6.900   5.831  0.6906  1.4333 -1.3032
    5NME   HH33   42   8.708   6.854   5.721 -0.0401  0.7873 -2.3750
  20.91516  20.91516  20.91516
