Protein
   42
    1ACE   HH31    1  14.532   4.341  11.793  0.7155  0.7789 -1.0175
    1ACE    CH3    2  14.499   4.444  11.809  0.1567  0.5107 -0.4598
    1ACE   HH32    3  14.417   4.468  11.742  1.1583 -0.8101 -2.2517
    1ACE   HH33    4  14.577   4.515  11.783 -0.3322  0.9739 -0.6625
    1ACE      C    5  14.463   4.448  11.954  0.5090 -0.2514  0.2153
    1ACE      O    6  14.400   4.357  12.000  0.3235  0.6472 -0.1968
    2ALA      N    7  14.499   4.559  12.023  0.4280 -0.0321  0.2702
    2ALA      H    8  14.556   4.625  11.972  3.8782 -4.0740 -1.6591
    2ALA     CA    9  14.443   4.578  12.155 -0.3460 -0.2102  0.2801
    2ALA     HA   10  14.465   4.486  12.210 -0.4051 -0.3738  0.0309
    2ALA     CB   11  14.520   4.690  12.226 -0.5569  0.1964  0.0888
    2ALA    HB1   12  14.617   4.645  12.247 -1.4115 -3.2392 -2.3373
    2ALA    HB2   13  14.533   4.779  12.165  3.2834 -0.3743 -0.1773
    2ALA    HB3   14  14.476   4.711  12.324  2.0091  2.3624  0.8719
    2ALA      C   15  14.297   4.614  12.137 -0.4438 -0.2005  0.1174
    2ALA      O   16  14.265   4.703  12.058  0.0587 -0.0617  0.0941
    3ALA      N   17  14.199   4.551  12.200  0.3467 -0.4615 -0.1517
    3ALA      H   18  14.107   4.591  12.184 -0.0473 -1.8278 -1.6562
    3ALA     CA   19  14.202   4.439  12.297 -0.4589  0.7367 -0.5205
    3ALA     HA   20  14.305   4.427  12.333 -1.1052 -0.3377  1.0913
    3ALA     CB   21  14.125   4.489  12.420  0.0168 -0.4665  0.5850
    3ALA    HB1   22  14.023   4.469  12.388 -0.2185  1.5862 -0.0748
    3ALA    HB2   23  14.152   4.420  12.501  0.6258 -0.2040  0.6137
    3ALA    HB3   24  14.146   4.592  12.450  1.7755 -0.7079  0.3331
    3ALA      C   25  14.150   4.306  12.241  0.8595 -0.6987 -0.6531
    3ALA      O   26  14.096   4.224  12.318  0.1584 -0.3584 -0.0974
    4ALA      N   27  14.145   4.292  12.108  0.2982  0.3738  0.0045
    4ALA      H   28  14.200   4.357  12.054  0.3415 -0.9495 -1.6773
    4ALA     CA   29  14.077   4.181  12.031  0.3777 -0.1753 -0.0510
    4ALA     HA   30  13.997   4.132  12.086  1.0233 -0.2129  0.9001
    4ALA     CB   31  14.011   4.249  11.907 -0.9506  0.4533  0.4637
    4ALA    HB1   32  13.976   4.349  11.932 -1.7956  0.4587 -0.6559
    4ALA    HB2   33  14.092   4.257  11.835  1.1866 -0.2321  2.6516
    4ALA    HB3   34  13.930   4.186  11.871 -0.3904  0.0946 -0.1983
    4ALA      C   35  14.177   4.071  11.989 -0.2271 -0.8760  0.1747
    4ALA      O   36  14.147   3.989  11.901  0.4682  0.1091  0.3336
    5NME      N   37  14.300   4.075  12.039  0.0347  0.4658 -0.2521
    5NME      H   38  14.330   4.161  12.084  2.0647  0.7521 -1.9974
    5NME    CH3   39  14.400   3.968  12.029  0.2099 -0.2669  0.0507
    5NME   HH31   40  14.420   3.954  11.922 -0.3266 -2.9063  0.2382
    5NME   HH32   41  14.490   3.997  12.082 -0.0966 -0.1929  0.5395
    5NME   HH33   42  14.351   3.878  12.064  0.6106  0.1273  1.6959
  20.91516  20.91516  20.91516
