Protein
   42
    1ACE   HH31    1  11.595   9.915   2.705 -1.2801  2.1907  0.1744
    1ACE    CH3    2  11.551   9.844   2.636  0.1642  0.7879  0.6438
    1ACE   HH32    3  11.632   9.780   2.598  0.4291  1.7783 -0.5612
    1ACE   HH33    4  11.494   9.894   2.558  0.3551  0.8781  0.5571
    1ACE      C    5  11.445   9.765   2.713 -0.8883 -0.3277  0.2807
    1ACE      O    6  11.333   9.745   2.666  0.5011 -0.4049 -0.4712
    2ALA      N    7  11.494   9.728   2.832  0.2933 -0.0908 -0.1752
    2ALA      H    8  11.576   9.783   2.854  0.5562 -0.2479 -0.7528
    2ALA     CA    9  11.415   9.673   2.945 -0.1316 -0.3267  0.6135
    2ALA     HA   10  11.314   9.661   2.907  0.1386 -0.8291  0.0340
    2ALA     CB   11  11.452   9.526   2.978  0.4877  0.3342  0.2829
    2ALA    HB1   12  11.422   9.499   3.079 -1.2269  0.7928 -0.0499
    2ALA    HB2   13  11.407   9.455   2.909  0.4622  1.3875 -0.8305
    2ALA    HB3   14  11.558   9.505   2.975  0.0900 -3.1526  3.2954
    2ALA      C   15  11.419   9.767   3.068  0.3807 -0.5272  0.0731
    2ALA      O   16  11.519   9.836   3.089  0.4706 -0.0911 -0.0101
    3ALA      N   17  11.319   9.781   3.150 -0.8568 -0.1817 -0.1900
    3ALA      H   18  11.332   9.845   3.227 -1.6991  2.0615 -1.8207
    3ALA     CA   19  11.175   9.736   3.134  0.4761 -0.0607  0.7971
    3ALA     HA   20  11.163   9.628   3.143  0.2219 -0.0628  0.5158
    3ALA     CB   21  11.085   9.800   3.245 -0.4217  0.3137  0.0690
    3ALA    HB1   22  11.138   9.768   3.334 -0.7585  0.3748  0.2944
    3ALA    HB2   23  11.074   9.908   3.228 -0.7660 -0.2044 -4.0697
    3ALA    HB3   24  10.982   9.766   3.230 -0.5331  0.2945  0.7998
    3ALA      C   25  11.114   9.774   2.997 -0.6736 -0.3555  0.4801
    3ALA      O   26  11.050   9.684   2.942  0.5808 -0.1962 -0.0638
    4ALA      N   27  11.143   9.895   2.942  0.4244  0.1166  0.1460
    4ALA      H   28  11.204   9.959   2.992  3.4832 -1.3060 -1.4610
    4ALA     CA   29  11.111   9.934   2.804 -0.1941 -0.6140 -0.3800
    4ALA     HA   30  11.129   9.851   2.735  0.7551 -0.1776 -0.6652
    4ALA     CB   31  10.967   9.970   2.779 -0.3694 -0.6601  0.1946
    4ALA    HB1   32  10.943  10.062   2.832  0.8450  0.1413 -0.5834
    4ALA    HB2   33  10.943   9.992   2.675 -0.4201 -1.1607  0.1001
    4ALA    HB3   34  10.897   9.907   2.834 -0.2158  0.3282  1.5640
    4ALA      C   35  11.191  10.058   2.766  0.0113  0.2554  0.1544
    4ALA      O   36  11.258  10.126   2.846 -0.4421  0.0403 -0.1604
    5NME      N   37  11.210  10.075   2.637  1.0632 -0.2367 -0.2336
    5NME      H   38  11.164  10.009   2.575  2.3618 -1.9705  0.5644
    5NME    CH3   39  11.272  10.190   2.580 -0.7766  0.6234  0.3418
    5NME   HH31   40  11.379  10.199   2.599 -0.3997 -1.0161 -0.7497
    5NME   HH32   41  11.250  10.190   2.473 -0.5557 -0.8937  0.2814
    5NME   HH33   42  11.233  10.283   2.620  1.1868  1.3189  0.7560
  20.91516  20.91516  20.91516
