Protein
   42
    1ACE   HH31    1  11.669   6.277  14.016 -1.5147 -0.6730  1.1925
    1ACE    CH3    2  11.605   6.255  13.930  0.3653 -0.6376 -0.3200
    1ACE   HH32    3  11.507   6.242  13.977  1.2564 -0.6572  1.6520
    1ACE   HH33    4  11.643   6.179  13.863  0.4017  0.9425 -2.1896
    1ACE      C    5  11.604   6.384  13.854  0.5854 -0.3225 -0.2288
    1ACE      O    6  11.678   6.477  13.886 -0.1416 -0.4261 -0.5381
    2ALA      N    7  11.539   6.377  13.739  0.2309 -0.2878 -0.0794
    2ALA      H    8  11.479   6.299  13.719 -0.2197 -0.2960  1.2507
    2ALA     CA    9  11.550   6.484  13.638  0.2519 -0.2506 -0.0413
    2ALA     HA   10  11.643   6.538  13.655  0.1196  0.3680 -1.1721
    2ALA     CB   11  11.558   6.422  13.490  0.2575 -0.5809  0.2615
    2ALA    HB1   12  11.659   6.388  13.471  0.6820  1.3429 -1.1466
    2ALA    HB2   13  11.477   6.350  13.473  0.2730 -0.4379 -0.4479
    2ALA    HB3   14  11.543   6.505  13.422 -0.3809 -0.3550  0.6663
    2ALA      C   15  11.434   6.582  13.657 -0.5963 -0.0046  0.0025
    2ALA      O   16  11.317   6.553  13.630  0.6097  0.1068  0.2231
    3ALA      N   17  11.473   6.706  13.705  0.0393 -0.0820  0.5335
    3ALA      H   18  11.572   6.723  13.714  0.7260 -2.0996 -2.2063
    3ALA     CA   19  11.387   6.826  13.704  0.2441 -0.0555  0.0850
    3ALA     HA   20  11.289   6.811  13.749 -0.3042  5.0150  1.1787
    3ALA     CB   21  11.457   6.936  13.786 -0.2444 -0.1054 -0.4222
    3ALA    HB1   22  11.560   6.965  13.762 -0.2327  3.2646  2.7971
    3ALA    HB2   23  11.390   7.020  13.773 -0.9109 -0.8176 -1.7224
    3ALA    HB3   24  11.457   6.920  13.894  0.5998  1.3633 -0.1772
    3ALA      C   25  11.361   6.878  13.559  0.4742 -0.7936  0.4525
    3ALA      O   26  11.438   6.951  13.504 -0.3421 -0.0427  1.0646
    4ALA      N   27  11.251   6.822  13.498 -0.0804  0.0127  0.2679
    4ALA      H   28  11.192   6.759  13.550 -0.9853 -0.8252 -1.6783
    4ALA     CA   29  11.210   6.845  13.362  0.1018  0.0035  0.4735
    4ALA     HA   30  11.172   6.947  13.352 -1.1187 -0.5226 -0.5401
    4ALA     CB   31  11.321   6.826  13.261 -0.7614  0.0286 -0.4928
    4ALA    HB1   32  11.378   6.735  13.283 -3.1804 -1.1763  1.1960
    4ALA    HB2   33  11.286   6.799  13.161  0.1974 -1.8365 -0.3971
    4ALA    HB3   34  11.390   6.908  13.245 -2.5136  1.4943 -0.7773
    4ALA      C   35  11.096   6.739  13.331  0.0452 -0.0698  0.0356
    4ALA      O   36  11.009   6.757  13.246 -0.8375 -0.3806  0.2128
    5NME      N   37  11.095   6.624  13.400  0.0336  0.4314  0.4102
    5NME      H   38  11.170   6.606  13.466  0.4518  0.0079 -0.1711
    5NME    CH3   39  11.011   6.515  13.362 -0.3019 -0.6668 -0.1451
    5NME   HH31   40  11.020   6.439  13.439 -1.8265 -1.4111 -0.6638
    5NME   HH32   41  10.910   6.550  13.343  0.1251 -0.0336 -1.3742
    5NME   HH33   42  11.048   6.488  13.263  1.2360 -1.1899  0.5444
  20.91516  20.91516  20.91516
