Protein
   42
    1ACE   HH31    1   9.449  12.677   8.122 -0.5844  1.1434  1.3150
    1ACE    CH3    2   9.460  12.773   8.070  0.0654  0.4079  0.0268
    1ACE   HH32    3   9.563  12.797   8.047  0.2607  1.3159  1.6205
    1ACE   HH33    4   9.416  12.845   8.139 -3.3389 -0.7597 -0.7523
    1ACE      C    5   9.384  12.790   7.942  0.6971 -0.3401 -0.2389
    1ACE      O    6   9.367  12.902   7.909  0.5568  0.3100  0.0991
    2ALA      N    7   9.336  12.681   7.885 -0.2831 -0.3582  0.1622
    2ALA      H    8   9.359  12.588   7.919  0.9675  0.7026  2.4425
    2ALA     CA    9   9.248  12.685   7.772  0.4568  0.0618 -0.3429
    2ALA     HA   10   9.277  12.779   7.724 -1.1906  1.4531  1.2317
    2ALA     CB   11   9.295  12.563   7.689  0.4187  0.0241 -0.1499
    2ALA    HB1   12   9.285  12.474   7.751 -1.0021  0.4662  0.2903
    2ALA    HB2   13   9.233  12.546   7.601  1.3035  1.2808 -1.0523
    2ALA    HB3   14   9.400  12.578   7.664  0.8713  1.3787  2.2794
    2ALA      C   15   9.090  12.696   7.782  0.0085  0.3532  0.5878
    2ALA      O   16   9.019  12.681   7.686  0.3024 -0.3263  0.3550
    3ALA      N   17   9.035  12.727   7.899 -0.1245 -0.2145  0.5841
    3ALA      H   18   8.942  12.764   7.886  0.4328  0.5657 -1.7015
    3ALA     CA   19   9.080  12.719   8.040  0.0629  0.5400 -0.5888
    3ALA     HA   20   9.151  12.794   8.073  0.7873 -1.2672  2.3472
    3ALA     CB   21   8.954  12.752   8.128  0.2097 -0.4489  0.1715
    3ALA    HB1   22   8.910  12.842   8.084 -0.2642  0.2630  2.0183
    3ALA    HB2   23   8.875  12.677   8.124 -1.6526  1.4312 -0.1019
    3ALA    HB3   24   8.984  12.777   8.229 -0.4401 -0.0295  0.2653
    3ALA      C   25   9.137  12.576   8.081 -0.9619  0.6228  0.7638
    3ALA      O   26   9.213  12.561   8.176 -0.3671 -0.5124 -0.6417
    4ALA      N   27   9.109  12.475   7.996  0.2150 -1.4040 -0.2417
    4ALA      H   28   9.033  12.499   7.934  0.5973  1.0684  0.1376
    4ALA     CA   29   9.142  12.342   8.021  0.6740  0.4577 -0.7354
    4ALA     HA   30   9.069  12.298   8.089 -2.0681  1.6525 -2.7494
    4ALA     CB   31   9.124  12.266   7.891 -0.0174  0.6997 -0.3790
    4ALA    HB1   32   9.020  12.273   7.858 -0.6741 -1.5881  0.8964
    4ALA    HB2   33   9.196  12.295   7.815 -0.0122  0.6776 -0.3842
    4ALA    HB3   34   9.148  12.161   7.912 -0.5249  0.9272  1.5300
    4ALA      C   35   9.282  12.316   8.071 -0.5073 -0.0320 -0.0936
    4ALA      O   36   9.382  12.343   8.006  0.1066 -0.2612  0.0604
    5NME      N   37   9.295  12.246   8.185 -0.3063  0.5024 -0.0383
    5NME      H   38   9.207  12.245   8.236 -0.7983 -1.3186 -0.8420
    5NME    CH3   39   9.415  12.215   8.264  0.2816 -0.1976 -0.1820
    5NME   HH31   40   9.378  12.208   8.366 -0.6007 -0.1737 -0.4976
    5NME   HH32   41   9.450  12.118   8.228 -3.2015 -0.8934 -2.0626
    5NME   HH33   42   9.491  12.291   8.245  1.5024 -1.3469 -0.0470
  20.91516  20.91516  20.91516
