Protein
   60
    1ACE   HH31    1  19.514  23.086  22.385 -0.1169 -0.4448  0.8161
    1ACE    CH3    2  19.598  23.043  22.330 -0.7449 -0.2391 -0.3415
    1ACE   HH32    3  19.562  22.970  22.257 -3.3085 -0.7361  1.2871
    1ACE   HH33    4  19.643  23.125  22.274  1.8565 -0.2566  1.5767
    1ACE      C    5  19.701  22.985  22.433  1.0374  0.6159 -0.0060
    1ACE      O    6  19.662  22.981  22.544 -0.0988  0.3606 -0.5758
    2TRP      N    7  19.814  22.926  22.401 -0.0237 -0.3584 -0.3606
    2TRP      H    8  19.860  22.879  22.478  0.3448  0.8026  0.1499
    2TRP     CA    9  19.870  22.906  22.273 -0.4413 -0.1366 -0.0014
    2TRP     HA   10  19.868  22.999  22.216  0.1592  1.1580  1.9715
    2TRP     CB   11  20.018  22.867  22.294 -0.7953  0.3115 -0.4452
    2TRP    HB1   12  20.051  22.942  22.366 -4.9865  1.1199  0.8839
    2TRP    HB2   13  20.070  22.872  22.198  0.2287 -0.6045  0.0460
    2TRP     CG   14  20.040  22.728  22.351 -0.2294  0.6001 -0.1211
    2TRP    CD1   15  20.073  22.618  22.275 -0.1745  0.8136  0.5250
    2TRP    HD1   16  20.068  22.620  22.167 -0.8652  2.8231  0.5518
    2TRP    NE1   17  20.089  22.512  22.360  0.7391  0.2705 -0.3389
    2TRP    HE1   18  20.106  22.419  22.324  0.7338  0.8523 -1.9347
    2TRP    CE2   19  20.080  22.545  22.493 -0.1273  0.3630  0.6233
    2TRP    CZ2   20  20.087  22.476  22.609  0.0814  0.3413 -0.3032
    2TRP    HZ2   21  20.115  22.373  22.598  0.6379  0.4356  0.1442
    2TRP    CH2   22  20.074  22.540  22.729 -0.5468 -0.0918 -0.4006
    2TRP    HH2   23  20.080  22.481  22.820  0.1028 -0.6610 -0.8008
    2TRP    CZ3   24  20.048  22.678  22.741 -0.1633  0.0467  0.1877
    2TRP    HZ3   25  20.034  22.735  22.832 -1.0873  0.4325 -0.1873
    2TRP    CE3   26  20.035  22.754  22.620 -0.9648  0.1328  0.4429
    2TRP    HE3   27  20.019  22.860  22.608  0.7370  0.4242  0.4194
    2TRP    CD2   28  20.058  22.685  22.495  0.6895 -0.4210  0.5921
    2TRP      C   29  19.809  22.803  22.167  0.3408 -0.1761 -0.0019
    2TRP      O   30  19.841  22.819  22.051 -0.2733 -0.0694 -0.1497
    3TRP      N   31  19.713  22.711  22.193 -0.0546  0.0404 -0.7317
    3TRP      H   32  19.682  22.663  22.110 -0.2263  1.1460 -1.3245
    3TRP     CA   33  19.670  22.663  22.327  0.3957  1.1299 -0.0577
    3TRP     HA   34  19.729  22.712  22.405 -0.7205  1.0171  0.8998
    3TRP     CB   35  19.714  22.515  22.337  0.4499 -1.0841 -0.0646
    3TRP    HB1   36  19.690  22.465  22.244  0.5451 -0.3860 -0.4767
    3TRP    HB2   37  19.823  22.514  22.349  0.5968  1.1851 -0.8307
    3TRP     CG   38  19.636  22.442  22.441 -0.8654  0.1677 -1.1542
    3TRP    CD1   39  19.541  22.353  22.416 -0.6001 -0.1702 -0.6528
    3TRP    HD1   40  19.508  22.316  22.320 -3.5155 -0.7601  0.4693
    3TRP    NE1   41  19.493  22.291  22.532 -0.1245 -0.2337 -0.2595
    3TRP    HE1   42  19.449  22.201  22.530  0.8613 -0.7303 -0.1881
    3TRP    CE2   43  19.560  22.353  22.638 -0.3001 -0.1954 -0.2906
    3TRP    CZ2   44  19.558  22.324  22.780  0.1807  0.7803 -0.1298
    3TRP    HZ2   45  19.498  22.247  22.827 -0.6493  0.0858 -2.2102
    3TRP    CH2   46  19.644  22.397  22.862 -0.0645  0.2943 -0.0688
    3TRP    HH2   47  19.655  22.378  22.968  0.3392 -1.6138 -0.4137
    3TRP    CZ3   48  19.728  22.496  22.808  0.1040  0.1394 -0.6600
    3TRP    HZ3   49  19.808  22.542  22.864  0.6828  1.1231 -2.2327
    3TRP    CE3   50  19.727  22.525  22.674 -0.2923 -0.1996  0.4082
    3TRP    HE3   51  19.793  22.600  22.633 -2.8811  1.5364 -0.8619
    3TRP    CD2   52  19.647  22.455  22.584 -0.6894  0.5094 -0.4947
    3TRP      C   53  19.520  22.687  22.356  0.4706 -1.1839  0.2606
    3TRP      O   54  19.443  22.705  22.265 -0.3947  0.1414  0.5072
    4NME      N   55  19.480  22.694  22.486  0.4031  0.0659  0.3806
    4NME      H   56  19.549  22.675  22.557  2.3799 -0.7705 -1.6338
    4NME    CH3   57  19.342  22.736  22.528 -0.3988 -0.1664  0.0605
    4NME   HH31   58  19.276  22.686  22.457  0.0415  1.6429 -1.6646
    4NME   HH32   59  19.317  22.711  22.632 -1.5458 -0.8233 -0.3485
    4NME   HH33   60  19.323  22.841  22.507  2.0445  0.5235  0.9711
  41.12396  41.12396  41.12396
