Protein
   32
    1ACE   HH31    1   9.120  13.237   7.686 -0.3128 -2.5879 -0.1787
    1ACE    CH3    2   9.164  13.185   7.771  0.4776 -1.2791  0.2546
    1ACE   HH32    3   9.249  13.242   7.807  0.1768 -0.9431  0.4615
    1ACE   HH33    4   9.192  13.088   7.731  1.2585 -0.0616 -2.3954
    1ACE      C    5   9.062  13.176   7.878 -0.1697  0.4644 -0.4352
    1ACE      O    6   8.946  13.210   7.854  0.2585  0.5047 -0.8823
    2ALA      N    7   9.110  13.146   7.995 -0.0055 -0.1288 -0.3227
    2ALA      H    8   9.211  13.147   7.998 -0.0033  1.3411 -0.4166
    2ALA     CA    9   9.042  13.150   8.125  0.4668  0.5996  1.1855
    2ALA     HA   10   8.959  13.220   8.125 -1.8372 -1.9635  1.3918
    2ALA     CB   11   8.973  13.008   8.149 -0.4336 -0.0154  0.7622
    2ALA    HB1   12   8.901  13.013   8.230 -1.3586 -0.9466  0.0245
    2ALA    HB2   13   8.915  12.990   8.058 -1.9088 -2.0733  2.0596
    2ALA    HB3   14   9.037  12.923   8.170 -4.3404 -3.4011  0.2965
    2ALA      C   15   9.136  13.171   8.247 -0.2754  0.5229 -0.5713
    2ALA      O   16   9.233  13.093   8.267 -0.8092 -0.2504 -0.6096
    3ALA      N   17   9.112  13.272   8.322 -0.9456 -0.2140  0.0748
    3ALA      H   18   9.030  13.327   8.304 -0.7287 -0.4176 -1.7828
    3ALA     CA   19   9.174  13.297   8.455  0.0418  0.9067  0.3198
    3ALA     HA   20   9.215  13.200   8.482 -1.4212  0.0073 -0.5923
    3ALA     CB   21   9.294  13.399   8.440 -0.0268  0.1537  0.0149
    3ALA    HB1   22   9.338  13.413   8.538 -1.2031 -1.3840  0.8092
    3ALA    HB2   23   9.367  13.349   8.376  1.3276 -1.0337  2.3177
    3ALA    HB3   24   9.260  13.498   8.410  0.8571  0.8376  1.1896
    3ALA      C   25   9.072  13.338   8.564  0.3384  0.1967 -0.0333
    3ALA      O   26   8.948  13.340   8.536 -0.4115  0.8378 -0.1175
    4NME      N   27   9.130  13.376   8.679 -0.0427  0.2580  0.0017
    4NME      H   28   9.230  13.359   8.679  0.0163  0.5884  0.3134
    4NME    CH3   29   9.048  13.420   8.795 -0.4602 -0.0904  0.9997
    4NME   HH31   30   8.962  13.355   8.813 -1.0492  0.6842  1.0141
    4NME   HH32   31   9.110  13.424   8.885  0.5053 -1.2420  0.4082
    4NME   HH33   32   9.010  13.518   8.766 -0.2039 -0.4776 -0.7573
  20.99041  20.99041  20.99041
