Protein
   32
    1ACE   HH31    1   7.298  16.387  10.316  0.3402 -0.9771  0.3814
    1ACE    CH3    2   7.233  16.393  10.229  0.3389  0.3285  0.4424
    1ACE   HH32    3   7.285  16.455  10.157  1.9290 -1.3086  0.1196
    1ACE   HH33    4   7.136  16.421  10.271 -0.3954 -2.6330  0.9662
    1ACE      C    5   7.205  16.256  10.165 -0.2149  0.2733 -0.7384
    1ACE      O    6   7.226  16.242  10.047  0.1974  0.4495  0.3145
    2ALA      N    7   7.153  16.166  10.244  1.0326 -0.2331 -0.4736
    2ALA      H    8   7.137  16.209  10.334 -0.7952  1.0889 -1.3666
    2ALA     CA    9   7.095  16.037  10.213 -0.3624  0.4885 -0.1860
    2ALA     HA   10   7.085  15.984  10.308 -0.0370  1.5082  0.4318
    2ALA     CB   11   6.962  16.055  10.152 -0.2299  0.2343  0.1402
    2ALA    HB1   12   6.968  16.095  10.051 -1.6462 -1.9225 -0.8854
    2ALA    HB2   13   6.907  15.961  10.147 -0.0081  0.1289 -0.2818
    2ALA    HB3   14   6.909  16.117  10.224 -1.9963  0.4215 -1.2594
    2ALA      C   15   7.185  15.945  10.133 -0.5623 -0.0674  0.0706
    2ALA      O   16   7.135  15.860  10.061  0.1888  0.0276 -0.0188
    3ALA      N   17   7.319  15.961  10.141  0.0660 -0.0996  0.2381
    3ALA      H   18   7.359  16.021  10.212  0.9362 -1.2534  0.7502
    3ALA     CA   19   7.422  15.910  10.052 -0.4668  0.4157 -0.3147
    3ALA     HA   20   7.514  15.966  10.070 -0.4674  0.0436  0.8413
    3ALA     CB   21   7.447  15.767  10.103  0.6210  0.4824  0.0638
    3ALA    HB1   22   7.518  15.719  10.036  1.0403  1.7037 -0.4262
    3ALA    HB2   23   7.485  15.770  10.205  0.8105  2.2848 -0.0238
    3ALA    HB3   24   7.350  15.719  10.098  0.7203  0.2182  0.4620
    3ALA      C   25   7.386  15.920   9.904  0.2524 -0.3973  0.2889
    3ALA      O   26   7.439  15.849   9.824  0.0172 -0.4668  0.5740
    4NME      N   27   7.297  16.013   9.864  0.0644  0.0750 -0.4107
    4NME      H   28   7.253  16.060   9.942  0.9378 -0.6173  0.5291
    4NME    CH3   29   7.256  16.046   9.728  0.0967 -0.0555 -0.4915
    4NME   HH31   30   7.345  16.079   9.674 -0.2046  1.2007 -0.2795
    4NME   HH32   31   7.214  15.954   9.689  2.1507 -2.5611  2.6259
    4NME   HH33   32   7.178  16.122   9.729 -1.9855 -1.9514  2.7474
  20.99041  20.99041  20.99041
