Protein
   42
    1ACE   HH31    1   6.877   7.930   7.206 -1.8137  0.4602  0.1532
    1ACE    CH3    2   6.859   7.938   7.313 -0.7611  0.7649  0.3214
    1ACE   HH32    3   6.915   7.855   7.357 -0.1664  1.8167  1.6346
    1ACE   HH33    4   6.753   7.916   7.333 -0.5718  0.0076  0.5383
    1ACE      C    5   6.891   8.068   7.364 -0.0922 -0.9761 -0.8115
    1ACE      O    6   6.874   8.167   7.291  0.0692 -0.2604  0.0539
    2ALA      N    7   6.940   8.078   7.485 -0.1056  0.0923 -0.0701
    2ALA      H    8   6.972   7.994   7.531 -0.2938  1.3527  2.5209
    2ALA     CA    9   6.966   8.207   7.548  0.1761 -0.3939 -0.5020
    2ALA     HA   10   6.967   8.287   7.474  1.2910 -0.5639 -0.6986
    2ALA     CB   11   6.853   8.239   7.646  0.0181  0.2704 -0.1274
    2ALA    HB1   12   6.870   8.335   7.695  0.4739 -0.3606  0.9694
    2ALA    HB2   13   6.757   8.248   7.595 -0.8527 -0.0452  1.3873
    2ALA    HB3   14   6.842   8.164   7.724 -0.6159  3.0333  2.6182
    2ALA      C   15   7.095   8.203   7.629  0.5716  0.4008  0.0636
    2ALA      O   16   7.116   8.107   7.701 -0.5167 -0.3131  0.0026
    3ALA      N   17   7.195   8.292   7.624  0.1272 -0.3845 -0.0757
    3ALA      H   18   7.278   8.257   7.669 -0.4800 -1.8395 -0.0648
    3ALA     CA   19   7.217   8.410   7.541  0.7451  0.6951  0.3631
    3ALA     HA   20   7.312   8.460   7.554  1.1524  0.0364  0.0174
    3ALA     CB   21   7.214   8.363   7.390 -0.0224 -0.7154  0.3088
    3ALA    HB1   22   7.127   8.301   7.371 -0.5710  0.1115  0.0580
    3ALA    HB2   23   7.213   8.453   7.329 -0.3114 -0.4799  0.6518
    3ALA    HB3   24   7.303   8.306   7.366 -1.1792 -2.3148 -0.3479
    3ALA      C   25   7.116   8.518   7.567 -0.1364  0.3528 -1.2040
    3ALA      O   26   6.995   8.496   7.562 -0.4920 -0.4210 -0.2089
    4ALA      N   27   7.159   8.639   7.591 -0.3679  0.3929  0.2998
    4ALA      H   28   7.253   8.647   7.627  0.4356 -0.5172 -1.4866
    4ALA     CA   29   7.082   8.759   7.587 -0.4560  0.2031  0.6318
    4ALA     HA   30   6.992   8.755   7.647 -1.0973 -0.4465 -0.3374
    4ALA     CB   31   7.171   8.875   7.653  0.6410 -0.0859  0.2353
    4ALA    HB1   32   7.266   8.889   7.602 -0.1889  1.0760 -1.1016
    4ALA    HB2   33   7.116   8.970   7.657 -1.8763 -1.5161  2.8140
    4ALA    HB3   34   7.194   8.840   7.753 -0.3422 -0.0291  0.4914
    4ALA      C   35   7.035   8.795   7.444  0.0704 -0.3847 -0.4192
    4ALA      O   36   7.102   8.868   7.371 -0.2256 -0.0741  0.3456
    5NME      N   37   6.931   8.725   7.392  0.1792  0.0391 -0.1767
    5NME      H   38   6.907   8.645   7.449  2.1656  0.6287  1.6175
    5NME    CH3   39   6.851   8.751   7.273  0.5229  0.3240 -1.0990
    5NME   HH31   40   6.818   8.855   7.276 -0.5825 -0.0256 -0.4617
    5NME   HH32   41   6.907   8.720   7.185 -1.2904 -1.5604 -1.6718
    5NME   HH33   42   6.763   8.688   7.285  0.5800  0.2654 -0.9947
  20.91516  20.91516  20.91516
