Protein
   32
    1ACE   HH31    1   9.928  10.438  12.935  0.0475  0.4499 -0.0302
    1ACE    CH3    2   9.977  10.361  12.996 -0.2882  0.0725 -0.2289
    1ACE   HH32    3  10.084  10.380  13.010  0.3394 -2.0637 -1.6626
    1ACE   HH33    4   9.969  10.266  12.943 -1.3940  0.0595 -0.0655
    1ACE      C    5   9.911  10.358  13.137  0.0469 -0.5810 -0.2033
    1ACE      O    6   9.971  10.394  13.239  0.1488  0.5023  0.1989
    2ALA      N    7   9.781  10.326  13.139 -0.3416  0.1983 -0.0516
    2ALA      H    8   9.738  10.306  13.050 -2.7735 -1.1241  1.3506
    2ALA     CA    9   9.692  10.336  13.256  0.3446 -0.1593  0.4644
    2ALA     HA   10   9.723  10.418  13.321 -0.1494  0.5248 -0.1424
    2ALA     CB   11   9.557  10.355  13.191 -0.5222  0.2072  0.0758
    2ALA    HB1   12   9.486  10.361  13.274  0.3960 -1.6219  1.0367
    2ALA    HB2   13   9.558  10.447  13.133 -2.5769 -0.2581 -0.8086
    2ALA    HB3   14   9.541  10.265  13.132  0.2376  0.3451 -0.3351
    2ALA      C   15   9.691  10.210  13.346 -0.1251  0.0366  0.4372
    2ALA      O   16   9.641  10.223  13.455  0.4093 -0.1398  0.1057
    3ALA      N   17   9.739  10.099  13.297 -0.2405  0.6864  0.1592
    3ALA      H   18   9.787  10.107  13.209  2.9459  1.1351  1.7571
    3ALA     CA   19   9.691   9.963  13.339 -0.0812  0.2295  0.0761
    3ALA     HA   20   9.590   9.978  13.377 -0.4458 -0.8899 -0.3800
    3ALA     CB   21   9.679   9.878  13.218 -0.0025  0.2342  0.2910
    3ALA    HB1   22   9.635   9.780  13.235 -0.6495  0.4055 -0.3574
    3ALA    HB2   23   9.609   9.924  13.149  0.7040  1.2018  0.2037
    3ALA    HB3   24   9.778   9.860  13.176 -0.3262 -1.2999  0.1245
    3ALA      C   25   9.773   9.903  13.455  0.3399 -0.2386 -0.1036
    3ALA      O   26   9.798   9.783  13.461 -0.1020 -0.0120 -0.2621
    4NME      N   27   9.840   9.996  13.532  0.7418  0.0702 -0.2092
    4NME      H   28   9.802  10.090  13.528  1.0719  0.2366  0.4559
    4NME    CH3   29   9.948   9.953  13.623  0.4018 -0.4551  0.4422
    4NME   HH31   30  10.031   9.911  13.567 -0.7275 -1.4038 -0.5773
    4NME   HH32   31   9.988  10.041  13.673  0.9321 -0.5164  0.1218
    4NME   HH33   32   9.911   9.882  13.698 -0.7151  2.8698  3.3814
  20.99041  20.99041  20.99041
