Protein
   42
    1ACE   HH31    1   8.309  13.053  13.412 -1.0165 -0.6005 -0.2270
    1ACE    CH3    2   8.308  13.021  13.516  0.9291  0.1599  0.0643
    1ACE   HH32    3   8.206  12.992  13.541  0.9624  0.3430  0.4185
    1ACE   HH33    4   8.336  13.108  13.576  0.5035  1.1205 -1.1025
    1ACE      C    5   8.396  12.906  13.546  0.2439  0.0960 -0.1007
    1ACE      O    6   8.463  12.854  13.460  0.0990  0.0463  0.3250
    2ALA      N    7   8.406  12.883  13.677 -0.4081 -0.3027 -0.5689
    2ALA      H    8   8.347  12.940  13.736  1.5766 -0.1738  1.4202
    2ALA     CA    9   8.491  12.786  13.746  0.5942  0.0207  0.1647
    2ALA     HA   10   8.480  12.811  13.852 -3.2852 -0.9298  0.1270
    2ALA     CB   11   8.433  12.642  13.723  0.0059 -0.2804  0.7078
    2ALA    HB1   12   8.434  12.623  13.615 -2.3038  2.3548  0.1042
    2ALA    HB2   13   8.490  12.572  13.783 -0.3880  0.9292  2.5730
    2ALA    HB3   14   8.338  12.654  13.774  0.0218  1.8336  0.3395
    2ALA      C   15   8.640  12.794  13.714 -0.4328 -0.1323  0.2160
    2ALA      O   16   8.706  12.692  13.709 -0.3720 -0.3604  0.2714
    3ALA      N   17   8.696  12.912  13.693  0.5927 -0.1563 -0.0891
    3ALA      H   18   8.791  12.901  13.661  0.8274 -1.5360  0.9423
    3ALA     CA   19   8.649  13.048  13.711 -0.7007 -0.6930  0.4780
    3ALA     HA   20   8.545  13.067  13.683 -0.3167 -0.3848 -0.7735
    3ALA     CB   21   8.640  13.083  13.858 -0.2552 -0.0477 -0.5726
    3ALA    HB1   22   8.739  13.104  13.899 -0.6286 -0.2454  0.4713
    3ALA    HB2   23   8.569  13.164  13.876 -0.4793 -0.6269  1.4703
    3ALA    HB3   24   8.597  13.001  13.915  1.1040  0.1514  0.7908
    3ALA      C   25   8.736  13.151  13.629  0.2741  0.1289 -0.1649
    3ALA      O   26   8.855  13.140  13.637 -0.4933  0.7941  0.4296
    4ALA      N   27   8.677  13.253  13.563  0.3281 -0.1090  0.2110
    4ALA      H   28   8.576  13.256  13.555  0.2144 -2.3555  0.3529
    4ALA     CA   29   8.732  13.375  13.498 -0.3678  0.3211  0.4930
    4ALA     HA   30   8.814  13.420  13.554  0.0520  0.8891 -0.5415
    4ALA     CB   31   8.787  13.339  13.354  0.0259 -0.3067 -0.5086
    4ALA    HB1   32   8.709  13.292  13.295  0.8047 -1.0299 -0.9896
    4ALA    HB2   33   8.827  13.422  13.296  2.4595 -2.1627 -1.7160
    4ALA    HB3   34   8.868  13.267  13.368  1.5190  1.4285  0.0947
    4ALA      C   35   8.624  13.481  13.478 -0.1045  0.2986  0.0125
    4ALA      O   36   8.509  13.444  13.495  0.4474 -0.0012  0.2262
    5NME      N   37   8.664  13.609  13.463  0.0212 -0.0556  0.8589
    5NME      H   38   8.763  13.627  13.469  0.8177 -1.4217 -3.9654
    5NME    CH3   39   8.580  13.723  13.434  0.2880 -0.1356  0.8353
    5NME   HH31   40   8.553  13.769  13.529 -0.5310  0.3009  0.4003
    5NME   HH32   41   8.641  13.794  13.377 -0.9772 -2.5557 -4.0633
    5NME   HH33   42   8.500  13.685  13.372  0.4062 -2.3881  1.9609
  20.91516  20.91516  20.91516
