Protein
   32
    1ACE   HH31    1  13.284  15.984   8.398  0.1722  0.4928  0.5832
    1ACE    CH3    2  13.184  16.017   8.424  0.1652  0.3441  0.7498
    1ACE   HH32    3  13.117  15.965   8.356  0.7092 -0.4340  0.7979
    1ACE   HH33    4  13.177  16.123   8.400  0.6309 -0.2501 -2.3050
    1ACE      C    5  13.151  15.982   8.570 -0.3249 -0.3293  0.1411
    1ACE      O    6  13.171  16.070   8.647  0.1236 -0.1487 -0.4952
    2ALA      N    7  13.098  15.863   8.599 -0.4478  0.2905  0.2958
    2ALA      H    8  13.106  15.784   8.536  0.7372 -1.0920  2.0952
    2ALA     CA    9  13.038  15.814   8.721 -0.3802 -0.2701 -0.2238
    2ALA     HA   10  12.946  15.872   8.718 -0.2914 -0.1379 -0.5236
    2ALA     CB   11  13.003  15.662   8.713 -0.1744  0.4220  0.0122
    2ALA    HB1   12  13.090  15.597   8.721 -0.7698 -0.1704  1.9274
    2ALA    HB2   13  12.934  15.628   8.789  0.2990  0.0044  0.2612
    2ALA    HB3   14  12.958  15.634   8.618 -0.7256  0.3917  0.2705
    2ALA      C   15  13.113  15.857   8.854 -0.6211 -0.5236 -0.2232
    2ALA      O   16  13.055  15.942   8.921  0.2741 -0.1457 -0.0366
    3ALA      N   17  13.222  15.788   8.898 -0.8291 -0.0021  0.3907
    3ALA      H   18  13.246  15.717   8.830 -0.6578  2.2803 -2.0936
    3ALA     CA   19  13.336  15.830   8.985 -0.4460 -0.2853 -0.2740
    3ALA     HA   20  13.326  15.770   9.076  2.6751 -3.1494 -1.6003
    3ALA     CB   21  13.466  15.768   8.932  0.2976  0.0879  0.0717
    3ALA    HB1   22  13.550  15.777   9.001 -0.2234  0.6670  0.6401
    3ALA    HB2   23  13.443  15.663   8.915 -2.1649  0.5950  0.0122
    3ALA    HB3   24  13.489  15.814   8.835 -0.2604 -0.4753 -0.3275
    3ALA      C   25  13.364  15.975   9.041  0.2046 -0.6143  0.3979
    3ALA      O   26  13.462  15.988   9.115  0.0434 -0.3082 -0.3337
    4NME      N   27  13.285  16.076   9.005 -0.7164  0.2152 -0.2052
    4NME      H   28  13.198  16.048   8.963 -1.4966 -0.7906  1.9509
    4NME    CH3   29  13.319  16.214   9.013 -0.1822 -0.1074 -0.2188
    4NME   HH31   30  13.388  16.227   9.096 -2.0162 -0.2992  1.3940
    4NME   HH32   31  13.362  16.244   8.917 -2.0922 -0.5041 -1.2447
    4NME   HH33   32  13.224  16.267   9.021  0.3549  1.0884 -1.4349
  20.99041  20.99041  20.99041
