Protein
   42
    1ACE   HH31    1  12.207  20.450  15.630 -3.2579 -1.3786 -1.1895
    1ACE    CH3    2  12.220  20.493  15.531  0.6632 -0.0090 -0.2357
    1ACE   HH32    3  12.228  20.415  15.455 -0.3319  0.8449 -1.2497
    1ACE   HH33    4  12.298  20.570  15.525 -0.8986  1.7701  1.0519
    1ACE      C    5  12.082  20.561  15.510 -0.0773  0.7154  0.0892
    1ACE      O    6  12.011  20.576  15.605 -1.1843 -0.1962  0.0051
    2ALA      N    7  12.052  20.610  15.391  0.3701 -0.2013  0.4990
    2ALA      H    8  12.113  20.580  15.316 -0.1463  1.5606 -0.7196
    2ALA     CA    9  11.930  20.679  15.354  0.8119  0.9756 -0.6353
    2ALA     HA   10  11.920  20.769  15.414 -2.7127  1.2566 -1.4071
    2ALA     CB   11  11.941  20.732  15.212 -0.8945  0.0623  0.3991
    2ALA    HB1   12  12.032  20.784  15.183 -1.3466  0.2849 -0.6882
    2ALA    HB2   13  11.936  20.646  15.144  0.9914 -0.8762  1.3879
    2ALA    HB3   14  11.858  20.798  15.186 -0.0919  0.6025 -0.8714
    2ALA      C   15  11.806  20.585  15.383  0.0013 -0.3795 -0.9567
    2ALA      O   16  11.789  20.484  15.318  0.2638 -0.2145  0.1396
    3ALA      N   17  11.719  20.623  15.479  0.0324 -0.3994  0.2111
    3ALA      H   18  11.636  20.565  15.477 -0.9155  0.5428  3.9838
    3ALA     CA   19  11.720  20.740  15.571  0.7024 -0.1813  0.3663
    3ALA     HA   20  11.826  20.761  15.590  1.0523 -0.4643 -1.0310
    3ALA     CB   21  11.672  20.868  15.492 -0.3279  0.2822 -0.5863
    3ALA    HB1   22  11.681  20.946  15.568  1.3168  0.2752 -0.7384
    3ALA    HB2   23  11.731  20.894  15.405 -0.5189  0.6215 -0.6140
    3ALA    HB3   24  11.568  20.858  15.460 -0.3379 -1.0252 -0.2087
    3ALA      C   25  11.645  20.718  15.702 -0.8415  0.6658 -1.0430
    3ALA      O   26  11.537  20.768  15.727  0.1879 -0.1681 -0.5743
    4ALA      N   27  11.702  20.635  15.794 -0.3023  0.2670  0.2798
    4ALA      H   28  11.798  20.605  15.781  0.1483  1.6793  0.1726
    4ALA     CA   29  11.641  20.601  15.926  0.2289  0.4058 -0.5255
    4ALA     HA   30  11.532  20.603  15.918  0.3448  0.4449 -2.8387
    4ALA     CB   31  11.685  20.455  15.968  0.2013  0.1163  0.1920
    4ALA    HB1   32  11.661  20.434  16.072 -2.5742 -1.3319 -0.6401
    4ALA    HB2   33  11.636  20.373  15.916  0.1861  0.2014  0.0635
    4ALA    HB3   34  11.792  20.448  15.947  0.4938 -0.5370  1.7210
    4ALA      C   35  11.681  20.705  16.037 -0.4151  0.0611 -0.1643
    4ALA      O   36  11.741  20.668  16.137 -0.9196 -0.2414  0.3022
    5NME      N   37  11.649  20.838  16.017 -0.3233 -0.3082  0.1666
    5NME      H   38  11.609  20.851  15.926 -2.9116  1.1014  1.3840
    5NME    CH3   39  11.686  20.955  16.092  0.2840  0.4203 -0.3355
    5NME   HH31   40  11.779  20.930  16.143 -0.0101  2.4325  1.2912
    5NME   HH32   41  11.712  21.037  16.025  1.5338  0.2933 -0.0360
    5NME   HH33   42  11.605  20.975  16.163 -0.0894 -1.0922 -0.2987
  20.91516  20.91516  20.91516
