Protein
   42
    1ACE   HH31    1  10.065  14.688   7.618  0.1620  1.1797 -1.0044
    1ACE    CH3    2   9.963  14.686   7.579 -0.2608 -0.0293  0.1231
    1ACE   HH32    3   9.904  14.596   7.593 -0.0436 -0.1180  0.5131
    1ACE   HH33    4   9.988  14.706   7.475 -0.2720  1.3484  0.3659
    1ACE      C    5   9.878  14.799   7.635 -0.6953  0.7479 -0.6101
    1ACE      O    6   9.817  14.868   7.559  0.3033 -0.1097 -0.1239
    2ALA      N    7   9.861  14.809   7.773 -0.0334 -0.4400 -0.0563
    2ALA      H    8   9.896  14.733   7.829 -3.1931 -2.3309 -0.4501
    2ALA     CA    9   9.851  14.943   7.844 -0.2902  0.5076 -0.0948
    2ALA     HA   10   9.876  14.927   7.949 -1.6653  1.6307  0.4271
    2ALA     CB   11   9.946  15.044   7.786  0.3150 -0.5020 -0.0562
    2ALA    HB1   12   9.946  15.128   7.855 -2.2872 -0.0887 -0.4333
    2ALA    HB2   13  10.046  15.008   7.762  0.7509  1.5432 -1.4804
    2ALA    HB3   14   9.904  15.069   7.688  1.8529  0.6307 -0.4472
    2ALA      C   15   9.705  14.998   7.859 -0.6298 -0.4132  0.3411
    2ALA      O   16   9.646  15.032   7.960  0.9505  0.0696 -0.4645
    3ALA      N   17   9.649  15.007   7.736 -0.0763 -0.2794 -0.1382
    3ALA      H   18   9.716  14.989   7.662  1.4661  0.3687  1.0596
    3ALA     CA   19   9.505  15.025   7.706 -0.4173  0.0306 -0.4836
    3ALA     HA   20   9.452  15.062   7.794  0.2421 -0.3713  0.0899
    3ALA     CB   21   9.481  15.122   7.595 -0.0690  0.1491 -0.1924
    3ALA    HB1   22   9.562  15.110   7.523  0.6108 -1.9397  0.8664
    3ALA    HB2   23   9.388  15.103   7.542  1.6865 -0.9197 -3.1602
    3ALA    HB3   24   9.470  15.220   7.642 -0.4679  0.5055 -0.9734
    3ALA      C   25   9.443  14.887   7.672  0.3820 -0.3836 -0.5629
    3ALA      O   26   9.325  14.864   7.698  0.0535  0.0769  0.2768
    4ALA      N   27   9.524  14.804   7.597  0.3031  0.3329  0.2351
    4ALA      H   28   9.622  14.819   7.582  0.6500  0.5090  2.3791
    4ALA     CA   29   9.469  14.676   7.550  0.0687  0.4836 -0.1589
    4ALA     HA   30   9.362  14.664   7.563 -0.3808  1.1752 -2.7261
    4ALA     CB   31   9.507  14.661   7.407 -0.0906  0.1800  0.0521
    4ALA    HB1   32   9.615  14.670   7.398  0.1124  0.7243  2.4535
    4ALA    HB2   33   9.461  14.571   7.366  1.6393  0.0252 -1.7218
    4ALA    HB3   34   9.477  14.743   7.342  2.5334 -0.6024 -2.3390
    4ALA      C   35   9.541  14.567   7.633 -0.1175 -0.1171 -1.0334
    4ALA      O   36   9.651  14.579   7.676 -0.6247  0.6813 -0.1535
    5NME      N   37   9.476  14.454   7.648  0.8328  0.6560 -0.6959
    5NME      H   38   9.393  14.439   7.592  0.6162 -0.8298 -0.0529
    5NME    CH3   39   9.522  14.343   7.729  0.0638 -0.7696  0.1764
    5NME   HH31   40   9.443  14.282   7.773  0.5275 -0.5217  1.3854
    5NME   HH32   41   9.586  14.272   7.675  1.7273  0.9967 -0.2725
    5NME   HH33   42   9.578  14.373   7.817 -1.8563 -0.6674  1.4066
  20.91516  20.91516  20.91516
