Protein
   22
    1ACE   HH31    1   7.711   4.316   2.989 -1.8273 -0.1704  0.9460
    1ACE    CH3    2   7.669   4.283   2.895  0.2930 -0.6886  0.1171
    1ACE   HH32    3   7.745   4.267   2.818 -0.4550  0.0700 -0.7941
    1ACE   HH33    4   7.598   4.356   2.857  0.4734 -0.6377 -0.1309
    1ACE      C    5   7.594   4.148   2.913 -0.1384 -0.4747  0.5518
    1ACE      O    6   7.624   4.071   3.002  0.8558  0.2371 -0.1876
    2ALA      N    7   7.503   4.121   2.819  0.1556 -0.7957  0.1456
    2ALA      H    8   7.489   4.200   2.758 -2.1601 -0.9326  0.3865
    2ALA     CA    9   7.393   4.015   2.820  0.1316 -0.1154 -0.1648
    2ALA     HA   10   7.422   3.910   2.820 -0.4092 -0.3085 -1.8730
    2ALA     CB   11   7.314   4.053   2.953  0.2292 -0.5103 -0.2540
    2ALA    HB1   12   7.305   4.162   2.951  0.5045 -0.4859 -0.3007
    2ALA    HB2   13   7.216   4.005   2.961 -1.1726  2.2761  0.4064
    2ALA    HB3   14   7.374   4.034   3.042 -0.2427 -1.6736 -0.1714
    2ALA      C   15   7.302   4.040   2.693  0.4929  0.8593 -0.0385
    2ALA      O   16   7.179   4.049   2.706 -0.4788 -0.3354 -0.2818
    3NME      N   17   7.362   4.039   2.574  0.1178  0.0002 -0.2198
    3NME      H   18   7.458   4.008   2.565  0.9080  2.4969 -1.1487
    3NME    CH3   19   7.299   4.046   2.449 -0.4761  0.1126 -0.3609
    3NME   HH31   20   7.230   3.965   2.425  0.3555 -1.2310  1.5727
    3NME   HH32   21   7.242   4.139   2.446  2.0324  1.7445  0.4430
    3NME   HH33   22   7.373   4.046   2.369  0.8169 -0.9813  0.7996
  10.72160  10.72160  10.72160
