Protein
   22
    1ACE   HH31    1   1.995   3.642   8.663  1.5375 -1.9725 -0.1776
    1ACE    CH3    2   2.059   3.722   8.700 -0.8410  0.3372 -0.7432
    1ACE   HH32    3   2.012   3.816   8.672 -0.8360  0.2221 -1.1463
    1ACE   HH33    4   2.162   3.713   8.663 -0.4542 -2.0895  0.7631
    1ACE      C    5   2.053   3.731   8.848  0.0203  0.8337  0.3565
    1ACE      O    6   1.996   3.825   8.899 -0.3085  0.3434  0.8165
    2ALA      N    7   2.095   3.624   8.909  0.0279 -0.2107  0.6536
    2ALA      H    8   2.140   3.553   8.853 -0.6787 -0.7186  0.7161
    2ALA     CA    9   2.095   3.609   9.053 -0.0361 -0.8896  0.1305
    2ALA     HA   10   2.011   3.664   9.095 -1.1411 -0.3275 -2.6338
    2ALA     CB   11   2.085   3.459   9.087  1.1597 -0.3860  0.1885
    2ALA    HB1   12   2.055   3.442   9.190 -0.6937 -0.3613 -0.3148
    2ALA    HB2   13   2.016   3.415   9.016 -0.3142 -0.0057  1.3480
    2ALA    HB3   14   2.184   3.414   9.072  0.7345 -1.4366  0.4736
    2ALA      C   15   2.223   3.670   9.124 -0.0041 -0.2452  0.5748
    2ALA      O   16   2.304   3.739   9.057 -0.4885 -0.0399 -0.1112
    3NME      N   17   2.245   3.652   9.254  0.0911  0.4856 -0.6725
    3NME      H   18   2.179   3.593   9.302  0.4036  1.2865  0.7775
    3NME    CH3   19   2.353   3.710   9.338  0.7081  0.1087 -0.1926
    3NME   HH31   20   2.446   3.671   9.298 -0.2513  0.5246 -2.9739
    3NME   HH32   21   2.354   3.818   9.325 -0.5787  0.3388  1.3383
    3NME   HH33   22   2.332   3.695   9.444  1.2005  1.6495  0.1534
  10.72160  10.72160  10.72160
