Protein
   32
    1ACE   HH31    1  11.665   8.844   7.053  0.5786  0.6255  0.0907
    1ACE    CH3    2  11.731   8.859   7.139 -0.1990  1.1394  0.6150
    1ACE   HH32    3  11.828   8.883   7.096 -1.0348  1.0926 -1.4344
    1ACE   HH33    4  11.730   8.767   7.197 -2.5997 -1.5076 -3.1368
    1ACE      C    5  11.666   8.969   7.217 -1.2929  0.5952  0.0626
    1ACE      O    6  11.714   9.082   7.233  0.1415 -0.4785 -0.2886
    2ALA      N    7  11.552   8.936   7.276 -0.4320  0.6384 -0.3797
    2ALA      H    8  11.526   8.839   7.277 -0.8931  0.6349 -3.5068
    2ALA     CA    9  11.475   9.026   7.372 -0.3936 -0.3874  0.2995
    2ALA     HA   10  11.511   9.128   7.358  1.8622 -0.1936  5.4348
    2ALA     CB   11  11.325   9.013   7.343 -0.2289  0.2220  0.3143
    2ALA    HB1   12  11.297   9.051   7.245 -0.1925 -2.4131 -0.8209
    2ALA    HB2   13  11.300   8.908   7.357  3.2132 -0.8760 -0.7533
    2ALA    HB3   14  11.272   9.071   7.419  2.1033  0.8261  1.6355
    2ALA      C   15  11.512   9.006   7.518  0.6830  0.4220 -0.4595
    2ALA      O   16  11.432   8.950   7.597 -0.2534 -0.3802 -0.0915
    3ALA      N   17  11.626   9.063   7.562 -0.2202 -0.3438 -0.0133
    3ALA      H   18  11.666   9.138   7.507 -0.2677  1.0108  1.7505
    3ALA     CA   19  11.699   9.030   7.686 -0.4021 -0.1249  0.6260
    3ALA     HA   20  11.804   9.051   7.667  0.0931 -1.2594  2.0155
    3ALA     CB   21  11.650   9.114   7.799 -0.0254  0.4680  0.8970
    3ALA    HB1   22  11.662   9.068   7.896 -0.9880 -2.2906 -0.1976
    3ALA    HB2   23  11.714   9.202   7.793 -1.1255  1.2142 -0.7598
    3ALA    HB3   24  11.546   9.142   7.784 -0.1103 -0.3653 -0.2128
    3ALA      C   25  11.713   8.881   7.724 -0.2647  0.6660  0.4518
    3ALA      O   26  11.704   8.791   7.641  0.1932 -0.1555  0.3546
    4NME      N   27  11.758   8.846   7.845 -1.1381  0.0649  0.3412
    4NME      H   28  11.761   8.922   7.912 -0.8937  1.0494 -0.7529
    4NME    CH3   29  11.784   8.709   7.894  0.8813 -0.4451 -0.0729
    4NME   HH31   30  11.825   8.703   7.995 -0.1213 -2.0877  0.2792
    4NME   HH32   31  11.694   8.648   7.894  1.3842 -1.2884 -2.0956
    4NME   HH33   32  11.856   8.655   7.833  1.6205  0.2630  0.1625
  20.99041  20.99041  20.99041
