Protein
   42
    1ACE   HH31    1  11.882   9.715  11.778  2.5251 -0.4446 -1.4975
    1ACE    CH3    2  11.816   9.717  11.691  0.1644 -0.0688  0.2033
    1ACE   HH32    3  11.858   9.647  11.618  0.0339  0.1740 -0.1088
    1ACE   HH33    4  11.819   9.814  11.641  1.3223 -0.8075 -1.2458
    1ACE      C    5  11.674   9.673  11.735  0.3715 -0.4485  0.3208
    1ACE      O    6  11.635   9.700  11.848 -0.2909  0.2900 -0.1692
    2ALA      N    7  11.604   9.600  11.643 -0.2142 -0.1376 -0.5925
    2ALA      H    8  11.648   9.600  11.552 -1.2156 -0.3624 -1.0865
    2ALA     CA    9  11.471   9.540  11.661 -0.0262 -0.2023  0.2186
    2ALA     HA   10  11.410   9.619  11.706  0.8575  0.5037  0.1907
    2ALA     CB   11  11.396   9.498  11.538  0.1233  0.5140 -0.6211
    2ALA    HB1   12  11.476   9.473  11.468  0.2766  0.1937 -0.3389
    2ALA    HB2   13  11.322   9.420  11.556  0.0694  0.6938 -0.0151
    2ALA    HB3   14  11.360   9.595  11.504 -0.4461  0.1939 -0.9456
    2ALA      C   15  11.477   9.421  11.756  0.4356 -0.1566 -0.1725
    2ALA      O   16  11.537   9.317  11.728 -0.0971 -0.3487 -0.5819
    3ALA      N   17  11.417   9.426  11.875  0.6021  0.7039  0.0160
    3ALA      H   18  11.409   9.341  11.928  0.3222  1.6416  1.5565
    3ALA     CA   19  11.367   9.541  11.947  0.1757 -0.0853 -0.0948
    3ALA     HA   20  11.413   9.634  11.913  1.1839 -0.2743  0.6660
    3ALA     CB   21  11.213   9.555  11.930  0.2642  0.8449  0.7378
    3ALA    HB1   22  11.183   9.555  11.825 -0.1991  0.5386  0.8652
    3ALA    HB2   23  11.159   9.476  11.981 -1.2468  1.4170  0.0959
    3ALA    HB3   24  11.186   9.650  11.976 -0.2798  0.2186  1.7759
    3ALA      C   25  11.408   9.529  12.095 -0.5478  0.6393 -0.2918
    3ALA      O   26  11.356   9.443  12.162  0.0069  0.2468 -0.2734
    4ALA      N   27  11.507   9.609  12.130  0.3536 -0.3605 -0.6841
    4ALA      H   28  11.548   9.666  12.058  0.4648  0.6456  0.1546
    4ALA     CA   29  11.587   9.617  12.252 -0.9322 -0.4131 -0.2074
    4ALA     HA   30  11.606   9.724  12.264  1.9215 -1.0544  2.1947
    4ALA     CB   31  11.524   9.564  12.382 -0.3163  0.7404 -0.1143
    4ALA    HB1   32  11.578   9.590  12.474 -0.9254 -0.5394  0.6422
    4ALA    HB2   33  11.428   9.614  12.385 -0.1797  1.0821 -1.3911
    4ALA    HB3   34  11.511   9.456  12.372 -3.0388  0.9786  0.0960
    4ALA      C   35  11.733   9.565  12.218 -0.3225 -0.0261  0.2542
    4ALA      O   36  11.820   9.575  12.300  0.2953  0.1037 -0.1485
    5NME      N   37  11.757   9.498  12.104  0.1351 -0.1775  0.4995
    5NME      H   38  11.682   9.485  12.037 -0.8262  0.4605  1.3992
    5NME    CH3   39  11.890   9.456  12.057  0.3463  0.2290 -0.9028
    5NME   HH31   40  11.906   9.496  11.957  0.6949  4.0971  0.5058
    5NME   HH32   41  11.972   9.511  12.104  0.5571  1.2224 -2.3640
    5NME   HH33   42  11.911   9.349  12.061  1.3205  0.4332 -0.0006
  20.91516  20.91516  20.91516
