Protein
   32
    1ACE   HH31    1  11.963   5.689   9.650 -0.3683  1.6285 -1.1910
    1ACE    CH3    2  11.974   5.781   9.707 -0.3521  0.8432  0.1208
    1ACE   HH32    3  12.064   5.830   9.669  0.5668 -0.4734  0.5307
    1ACE   HH33    4  11.978   5.769   9.816  3.1922  1.7659  0.2334
    1ACE      C    5  11.854   5.868   9.681 -0.4147  0.3208  0.3094
    1ACE      O    6  11.861   5.986   9.668 -0.3225  0.2751  0.0095
    2ALA      N    7  11.735   5.799   9.677 -0.5088 -0.3447 -0.2925
    2ALA      H    8  11.743   5.699   9.686 -0.7112 -0.2011  3.4048
    2ALA     CA    9  11.604   5.859   9.641  0.1492 -0.1583 -0.1590
    2ALA     HA   10  11.559   5.909   9.726 -3.7749 -1.4668 -1.2714
    2ALA     CB   11  11.622   5.941   9.513 -1.0030 -0.1043 -0.4218
    2ALA    HB1   12  11.696   5.894   9.448 -2.0124  0.0796 -1.7466
    2ALA    HB2   13  11.519   5.952   9.477 -1.5084  0.2931  1.0606
    2ALA    HB3   14  11.659   6.039   9.541 -0.2727 -0.3245 -0.5923
    2ALA      C   15  11.517   5.733   9.613  0.4034  0.3425 -0.3644
    2ALA      O   16  11.559   5.621   9.598 -0.8123  0.6285  0.5490
    3ALA      N   17  11.384   5.754   9.612  0.4893  0.1225 -0.2483
    3ALA      H   18  11.356   5.850   9.600 -1.9044 -0.2511  1.5751
    3ALA     CA   19  11.285   5.645   9.587  0.0030  0.5487 -0.5414
    3ALA     HA   20  11.299   5.564   9.658 -0.1511  0.2133 -0.8912
    3ALA     CB   21  11.147   5.698   9.618 -0.3672 -0.1034  0.0000
    3ALA    HB1   22  11.147   5.796   9.571 -1.0713 -2.3410 -5.4384
    3ALA    HB2   23  11.071   5.639   9.568  0.4605 -1.3514  0.1891
    3ALA    HB3   24  11.128   5.712   9.725  0.4483  0.0619  0.1264
    3ALA      C   25  11.301   5.590   9.440  0.2780  0.1266 -0.1938
    3ALA      O   26  11.233   5.641   9.351  0.2078  0.1882 -0.2493
    4NME      N   27  11.387   5.495   9.411  0.4614 -0.1905  0.3220
    4NME      H   28  11.436   5.468   9.495  1.0640  0.1148  0.0837
    4NME    CH3   29  11.424   5.447   9.281  0.2112 -0.1281 -0.8119
    4NME   HH31   30  11.414   5.338   9.276 -0.1806 -0.1189 -0.2969
    4NME   HH32   31  11.355   5.485   9.205 -2.1638 -1.4581  0.5552
    4NME   HH33   32  11.526   5.473   9.251  1.4225 -2.1950  1.2368
  20.99041  20.99041  20.99041
