Protein
   42
    1ACE   HH31    1   9.725  16.265   6.721  1.6536 -1.2204 -1.7013
    1ACE    CH3    2   9.796  16.343   6.750 -0.0416 -0.2812  0.1745
    1ACE   HH32    3   9.872  16.355   6.673  0.8295 -0.9800  0.9017
    1ACE   HH33    4   9.843  16.301   6.839  1.0015  2.4204  1.0021
    1ACE      C    5   9.727  16.468   6.781 -0.3021  0.7999 -0.4241
    1ACE      O    6   9.707  16.551   6.696 -0.0915 -0.1963  0.0310
    2ALA      N    7   9.699  16.480   6.909  0.8339 -0.7988 -0.4442
    2ALA      H    8   9.726  16.407   6.974  0.0957 -0.0541  0.7377
    2ALA     CA    9   9.654  16.611   6.967 -0.0113 -0.6493  0.0925
    2ALA     HA   10   9.642  16.679   6.882  0.5586  0.3057  0.7571
    2ALA     CB   11   9.516  16.609   7.029  0.2052 -0.2085 -0.1462
    2ALA    HB1   12   9.511  16.534   7.108  0.2530 -0.8535 -0.7435
    2ALA    HB2   13   9.489  16.700   7.084  0.8065 -0.6429  0.9007
    2ALA    HB3   14   9.442  16.581   6.955  0.8999 -1.7915 -0.2759
    2ALA      C   15   9.757  16.661   7.071 -0.5183  0.3116  0.0786
    2ALA      O   16   9.785  16.589   7.170  0.4817  0.9410 -0.3548
    3ALA      N   17   9.813  16.774   7.061 -1.0559 -0.1262  0.0551
    3ALA      H   18   9.883  16.793   7.131 -0.4049  2.5108 -1.1634
    3ALA     CA   19   9.791  16.880   6.956  0.3339 -0.2438 -0.4907
    3ALA     HA   20   9.777  16.831   6.860  2.2414 -1.2924 -0.2843
    3ALA     CB   21   9.671  16.966   6.993  0.5441 -0.7325 -1.1262
    3ALA    HB1   22   9.671  17.002   7.096 -1.3728  0.3768 -1.4618
    3ALA    HB2   23   9.673  17.051   6.925  0.7807  0.6332  0.5005
    3ALA    HB3   24   9.579  16.910   6.976 -1.1371  1.2977  0.7234
    3ALA      C   25   9.923  16.965   6.943 -0.3517  0.4793 -0.2156
    3ALA      O   26   9.974  17.003   7.047  0.0993  0.5305  0.5462
    4ALA      N   27   9.969  16.997   6.820 -0.4119 -0.5688 -0.2753
    4ALA      H   28   9.940  16.952   6.735 -1.2835  0.9268 -0.7851
    4ALA     CA   29  10.067  17.101   6.790  0.0558  0.8399 -0.3619
    4ALA     HA   30  10.158  17.045   6.768 -1.4311 -1.6350 -0.6782
    4ALA     CB   31  10.018  17.179   6.665 -0.3221 -0.2562  0.1651
    4ALA    HB1   32  10.097  17.250   6.639 -0.0229 -0.2904  0.9587
    4ALA    HB2   33  10.005  17.108   6.583  0.4311 -0.2594  0.0371
    4ALA    HB3   34   9.922  17.222   6.690  0.5016  1.3437  0.7459
    4ALA      C   35  10.098  17.199   6.905 -0.7151  0.2582 -0.2155
    4ALA      O   36  10.038  17.302   6.919  0.2110  0.2024 -0.0331
    5NME      N   37  10.202  17.158   6.987  1.2049 -0.3359  0.0217
    5NME      H   38  10.236  17.063   6.977  2.1432  0.0515 -0.5986
    5NME    CH3   39  10.255  17.241   7.093 -0.0270  0.2406 -0.0614
    5NME   HH31   40  10.354  17.202   7.120  0.1330  1.4712  1.3343
    5NME   HH32   41  10.261  17.346   7.064 -0.9523  0.9396  2.0944
    5NME   HH33   42  10.196  17.234   7.185  0.0188 -3.1361 -0.1532
  20.91516  20.91516  20.91516
