Protein
   42
    1ACE   HH31    1  11.213   6.867   7.683 -1.9233  1.4519 -0.1160
    1ACE    CH3    2  11.231   6.904   7.784 -0.0502  0.2194  0.0735
    1ACE   HH32    3  11.212   6.831   7.863 -1.1103 -1.4096 -1.6117
    1ACE   HH33    4  11.166   6.990   7.797 -2.1426 -1.1478 -0.7665
    1ACE      C    5  11.380   6.943   7.785 -0.2069  0.0807  0.1261
    1ACE      O    6  11.446   6.932   7.685  0.0932  0.0688 -0.4338
    2ALA      N    7  11.431   6.983   7.905 -0.1983  0.0492 -0.0124
    2ALA      H    8  11.367   7.013   7.978 -1.8784 -2.8257 -0.1632
    2ALA     CA    9  11.575   6.989   7.937 -0.5425  0.3618  0.8230
    2ALA     HA   10  11.634   6.984   7.846  0.7793  0.9155  1.6237
    2ALA     CB   11  11.605   7.128   7.983 -0.4458  0.1132  0.3761
    2ALA    HB1   12  11.539   7.193   7.923  0.1723 -1.0234 -1.6242
    2ALA    HB2   13  11.577   7.130   8.088  1.3445  2.3102  0.8608
    2ALA    HB3   14  11.710   7.150   7.966 -0.5845 -0.6158 -1.8050
    2ALA      C   15  11.627   6.877   8.033  0.0990  0.3524  0.3193
    2ALA      O   16  11.635   6.891   8.155  0.1590 -0.2289  0.5550
    3ALA      N   17  11.670   6.764   7.994  0.2408  0.2376  0.0575
    3ALA      H   18  11.731   6.714   8.057  1.0953 -0.1562 -1.0533
    3ALA     CA   19  11.663   6.708   7.857 -0.2392  0.2937  0.7144
    3ALA     HA   20  11.642   6.788   7.785 -1.0584 -3.4865 -3.7375
    3ALA     CB   21  11.798   6.649   7.802 -0.1599 -0.2324 -0.3395
    3ALA    HB1   22  11.788   6.605   7.703 -1.0776  0.4691 -0.5740
    3ALA    HB2   23  11.879   6.721   7.806 -1.1718  0.9330  0.4479
    3ALA    HB3   24  11.831   6.570   7.870 -3.4274 -0.8959  0.6391
    3ALA      C   25  11.548   6.600   7.854 -0.2855  0.2251  0.8077
    3ALA      O   26  11.543   6.511   7.930 -0.3643  0.7756 -1.0692
    4ALA      N   27  11.466   6.612   7.751 -0.3454  0.5692 -0.4108
    4ALA      H   28  11.492   6.689   7.692  0.0476  1.0755  0.4039
    4ALA     CA   29  11.339   6.549   7.707 -0.1275 -0.2237  0.4607
    4ALA     HA   30  11.292   6.627   7.648  2.1578  1.0327  0.1644
    4ALA     CB   31  11.388   6.437   7.613  0.5086  0.5049  0.4528
    4ALA    HB1   32  11.446   6.478   7.530 -0.3015  1.1720  0.1972
    4ALA    HB2   33  11.453   6.366   7.663  1.8840 -1.3865 -3.6284
    4ALA    HB3   34  11.309   6.381   7.562  1.2941 -0.2439  0.0333
    4ALA      C   35  11.231   6.514   7.809 -0.0121  1.0816 -0.4226
    4ALA      O   36  11.131   6.460   7.762  0.3863  0.1835 -0.4242
    5NME      N   37  11.241   6.539   7.935  0.2695 -0.1678 -0.4177
    5NME      H   38  11.332   6.562   7.972  0.2066 -0.0475 -0.3249
    5NME    CH3   39  11.139   6.505   8.035  0.0027  0.2343 -0.5318
    5NME   HH31   40  11.094   6.411   8.004  1.1310  0.2093 -2.1841
    5NME   HH32   41  11.180   6.492   8.135 -1.6643  0.4617  0.2118
    5NME   HH33   42  11.065   6.585   8.044  0.7265  0.7864  1.0660
  20.91516  20.91516  20.91516
