Protein
   32
    1ACE   HH31    1   7.868  12.941   5.913 -0.2511  2.2698  0.2088
    1ACE    CH3    2   7.947  12.952   5.840 -0.1650  0.2669 -0.0718
    1ACE   HH32    3   8.006  12.861   5.846 -0.0501  0.3363 -0.1303
    1ACE   HH33    4   8.016  13.033   5.865 -1.0813  1.6466 -1.7772
    1ACE      C    5   7.873  12.975   5.714  0.3550 -0.4318  0.5818
    1ACE      O    6   7.861  13.086   5.666  0.0399 -0.4032 -0.2509
    2ALA      N    7   7.808  12.866   5.669 -0.1530  0.3161  0.1220
    2ALA      H    8   7.798  12.779   5.719 -1.1564 -1.4864 -2.9362
    2ALA     CA    9   7.739  12.858   5.544  0.6889 -0.6453  0.8123
    2ALA     HA   10   7.695  12.956   5.529  2.3235  0.0325  0.1323
    2ALA     CB   11   7.840  12.840   5.432 -0.2189  0.2952  0.1467
    2ALA    HB1   12   7.794  12.828   5.334  1.7099  2.4871 -1.1218
    2ALA    HB2   13   7.910  12.924   5.433 -2.0910  1.9420 -0.6815
    2ALA    HB3   14   7.894  12.747   5.448 -1.6443 -0.7350 -0.8845
    2ALA      C   15   7.636  12.740   5.535  0.5518  0.2925 -0.0948
    2ALA      O   16   7.621  12.664   5.633 -0.2131  0.0543  0.5048
    3ALA      N   17   7.557  12.725   5.426  0.8147 -0.0052  0.3414
    3ALA      H   18   7.565  12.790   5.349  1.6877  0.0596  0.4735
    3ALA     CA   19   7.448  12.623   5.414  0.4173 -1.1417  0.5992
    3ALA     HA   20   7.389  12.614   5.505 -0.5794  0.3950  0.1468
    3ALA     CB   21   7.349  12.670   5.302  0.0413 -0.0758  0.4050
    3ALA    HB1   22   7.389  12.649   5.203 -0.9239  1.2950 -0.3101
    3ALA    HB2   23   7.249  12.633   5.325  0.2028  0.0943  1.4152
    3ALA    HB3   24   7.343  12.778   5.297 -1.0739 -0.1058  0.8283
    3ALA      C   25   7.498  12.478   5.398 -0.1974  0.0579  0.1591
    3ALA      O   26   7.438  12.397   5.331  0.0040  0.1470 -0.2774
    4NME      N   27   7.608  12.443   5.460 -0.3569 -0.7324  0.4000
    4NME      H   28   7.649  12.509   5.525 -0.3624 -1.0312  0.7081
    4NME    CH3   29   7.652  12.305   5.487 -0.3485 -0.7934  0.3148
    4NME   HH31   30   7.559  12.251   5.504 -0.8323  0.0294  0.2948
    4NME   HH32   31   7.698  12.258   5.399  1.5889 -0.4429  1.1080
    4NME   HH33   32   7.739  12.302   5.552  0.4925  0.0574 -0.7300
  20.99041  20.99041  20.99041
