Protein
   32
    1ACE   HH31    1  10.212  12.138  12.828  2.2703 -0.7971 -0.5501
    1ACE    CH3    2  10.195  12.092  12.926 -0.1392  0.2004 -0.4311
    1ACE   HH32    3  10.225  12.163  13.003 -0.4671  1.3802 -1.3641
    1ACE   HH33    4  10.273  12.016  12.918  0.0362  0.5416 -2.5434
    1ACE      C    5  10.059  12.028  12.955  0.3673 -0.7898  0.4816
    1ACE      O    6  10.018  12.038  13.068  0.9895 -0.1607 -0.2418
    2ALA      N    7  10.004  11.957  12.854 -0.0807 -0.2260 -0.2600
    2ALA      H    8  10.056  11.949  12.769 -0.4506  1.8058 -0.7368
    2ALA     CA    9   9.893  11.868  12.879  0.2020 -0.1907 -0.4908
    2ALA     HA   10   9.822  11.920  12.944 -0.4406 -2.0423  0.3401
    2ALA     CB   11   9.832  11.834  12.745 -0.6872 -0.1953 -0.1043
    2ALA    HB1   12   9.800  11.930  12.703  0.7083  1.0883  1.5941
    2ALA    HB2   13   9.893  11.794  12.665 -1.4837 -2.3316  0.2956
    2ALA    HB3   14   9.748  11.767  12.764 -0.9845  0.4963  1.1831
    2ALA      C   15   9.928  11.736  12.957 -0.0898  0.1265  0.1147
    2ALA      O   16   9.971  11.634  12.897  0.0370  0.1114  0.1812
    3ALA      N   17   9.936  11.767  13.089 -0.4471  0.2464  0.2760
    3ALA      H   18   9.901  11.859  13.112 -0.4123  0.9741 -2.2481
    3ALA     CA   19   9.964  11.681  13.201  0.2812 -0.1982  0.3271
    3ALA     HA   20  10.070  11.666  13.183 -0.2829 -0.7514 -3.2590
    3ALA     CB   21   9.920  11.753  13.326 -0.2532  0.5661 -0.4102
    3ALA    HB1   22   9.944  11.694  13.414  0.5349  0.4306 -0.7070
    3ALA    HB2   23   9.983  11.842  13.333 -0.5798  0.9199 -1.7212
    3ALA    HB3   24   9.814  11.779  13.322 -0.4887 -0.3573 -0.3485
    3ALA      C   25   9.909  11.534  13.188  0.1674  0.0419 -0.3061
    3ALA      O   26   9.826  11.493  13.274 -0.0349  0.3625 -0.4724
    4NME      N   27   9.950  11.452  13.090 -0.3413 -0.9157 -0.3884
    4NME      H   28  10.000  11.492  13.012 -2.0453 -1.1400 -1.6471
    4NME    CH3   29   9.914  11.309  13.081 -0.2139  0.3623  0.3353
    4NME   HH31   30   9.961  11.281  12.986  0.6717  2.6779  0.0257
    4NME   HH32   31   9.962  11.249  13.158  0.6750  0.9426  0.2410
    4NME   HH33   32   9.806  11.293  13.081 -0.2759  0.6502 -0.7434
  20.99041  20.99041  20.99041
