Title
  129
    1AIB    CAY    1  22.000  21.116  21.482  0.1781  0.3061  0.2834
    1AIB    HY1    2  22.009  21.052  21.572  3.0354  2.7901  1.9056
    1AIB    HY2    3  21.963  21.215  21.514  1.1902  0.4703  0.9920
    1AIB    HY3    4  22.100  21.137  21.437 -0.0563 -0.8533 -0.8539
    1AIB     CY    5  21.903  21.057  21.378  0.0626 -0.1490  0.6735
    1AIB     OY    6  21.952  20.995  21.280  0.8768 -0.2356  0.6981
    1AIB      N    7  21.772  21.078  21.398  0.0285  0.0424 -0.2528
    1AIB     HN    8  21.739  21.120  21.482  0.1499 -0.4101  0.0222
    1AIB     CA    9  21.672  21.008  21.329  0.5755  0.8111  0.7600
    1AIB    CB1   10  21.539  21.066  21.373 -0.6292 -0.0997  0.2692
    1AIB   HB11   11  21.451  21.024  21.320  2.1969 -2.0604 -3.3422
    1AIB   HB12   12  21.540  21.177  21.364  0.7347  0.3231  3.7615
    1AIB   HB13   13  21.521  21.043  21.481 -1.1383 -1.4238 -0.0787
    1AIB    CB2   14  21.686  20.858  21.355 -0.4478 -0.3793 -0.0186
    1AIB   HB21   15  21.778  20.824  21.303  0.1173  3.2741 -1.8036
    1AIB   HB22   16  21.602  20.796  21.317 -0.0943 -0.4825 -0.6709
    1AIB   HB23   17  21.692  20.844  21.465  0.7813  1.0352  0.1339
    1AIB      C   18  21.665  21.014  21.171 -0.4340 -0.0913 -0.3993
    1AIB      O   19  21.632  20.916  21.100 -0.0026  0.6036 -0.0715
    2AIB      N   20  21.713  21.125  21.113  0.2915 -0.2122  0.0895
    2AIB     HN   21  21.759  21.189  21.174  2.7723 -0.9290 -0.8790
    2AIB     CA   22  21.719  21.160  20.973  0.0362 -0.1780 -0.3820
    2AIB    CB1   23  21.796  21.293  20.946  0.5462 -0.3268  0.1597
    2AIB   HB11   24  21.739  21.384  20.974  2.4974  1.4644 -1.2790
    2AIB   HB12   25  21.837  21.312  20.844  1.2621  3.0242  0.9504
    2AIB   HB13   26  21.881  21.303  21.017  0.6992 -0.3564 -0.0135
    2AIB    CB2   27  21.573  21.179  20.929 -0.1304 -0.0402 -0.4563
    2AIB   HB21   28  21.517  21.087  20.956  0.9100 -0.6224 -0.2429
    2AIB   HB22   29  21.563  21.197  20.820  3.1323 -0.9373 -1.0210
    2AIB   HB23   30  21.540  21.266  20.991  1.4541  0.4007 -0.1796
    2AIB      C   31  21.789  21.048  20.894 -0.5778  0.3359 -0.0437
    2AIB      O   32  21.740  21.009  20.787  0.0020 -0.5797  0.1141
    3AIB      N   33  21.896  20.984  20.948  0.0507 -0.3634 -0.2140
    3AIB     HN   34  21.938  21.011  21.034  0.9742 -2.9446  0.2413
    3AIB     CA   35  21.977  20.876  20.886  0.1607 -0.8058 -0.4630
    3AIB    CB1   36  22.099  20.845  20.980  0.0937  0.6429  0.0469
    3AIB   HB11   37  22.159  20.935  21.006  1.6240 -0.3955  0.2967
    3AIB   HB12   38  22.173  20.782  20.926 -1.0275 -2.7069  2.1392
    3AIB   HB13   39  22.079  20.782  21.070  1.4266  1.4605  0.9615
    3AIB    CB2   40  22.043  20.926  20.756 -0.1978 -0.4417  0.2538
    3AIB   HB21   41  22.126  20.861  20.719  0.7256  1.1520 -0.6078
    3AIB   HB22   42  22.093  21.024  20.768 -0.6031  0.0348 -1.5638
    3AIB   HB23   43  21.970  20.928  20.672  1.1049 -0.5112 -0.9074
    3AIB      C   44  21.892  20.745  20.862  0.3974  0.7653 -0.4642
    3AIB      O   45  21.900  20.684  20.758 -0.4506  0.6578 -0.0945
    4AIB      N   46  21.805  20.703  20.962 -0.1154 -0.2709 -0.2064
    4AIB     HN   47  21.795  20.758  21.044  0.1433 -0.6223  0.0641
    4AIB     CA   48  21.709  20.597  20.953 -0.1219  0.0548 -0.0149
    4AIB    CB1   49  21.655  20.592  21.098  0.3876 -0.6018  0.0108
    4AIB   HB11   50  21.616  20.692  21.124  0.2903 -0.5771 -0.2311
    4AIB   HB12   51  21.713  20.546  21.181 -1.3090 -1.2695  0.8902
    4AIB   HB13   52  21.563  20.532  21.084  0.8052 -0.7398 -2.7214
    4AIB    CB2   53  21.774  20.457  20.927 -0.8257 -0.0095 -0.6353
    4AIB   HB21   54  21.698  20.379  20.904  0.1278 -1.2354  0.2871
    4AIB   HB22   55  21.845  20.434  21.009  0.2468  3.7170 -0.2945
    4AIB   HB23   56  21.835  20.463  20.835 -0.8258  0.8522 -0.5905
    4AIB      C   57  21.601  20.625  20.853  0.1204  0.1883 -0.3441
    4AIB      O   58  21.565  20.540  20.774  0.0599  0.0030  0.6323
    5AIB      N   59  21.551  20.754  20.847 -0.0804 -0.0637 -0.0061
    5AIB     HN   60  21.590  20.824  20.907 -1.5279 -0.7202  1.8122
    5AIB     CA   61  21.438  20.790  20.762 -0.7676  0.3745  0.2681
    5AIB    CB1   62  21.402  20.943  20.767  0.2389 -0.0458  0.3060
    5AIB   HB11   63  21.482  21.005  20.721  0.9346  0.5228  2.1433
    5AIB   HB12   64  21.403  20.978  20.873  2.1157  3.1145 -0.6341
    5AIB   HB13   65  21.301  20.950  20.720  0.5092 -1.5197 -0.5615
    5AIB    CB2   66  21.320  20.716  20.811 -0.2444  0.7888 -0.0827
    5AIB   HB21   67  21.232  20.726  20.744 -0.1913  0.8391 -0.1459
    5AIB   HB22   68  21.301  20.751  20.915  0.3529 -1.3874  0.8186
    5AIB   HB23   69  21.344  20.608  20.821 -1.3741  0.5420  0.2136
    5AIB      C   70  21.477  20.770  20.613  0.1157 -0.7225  0.6411
    5AIB      O   71  21.397  20.735  20.529 -0.3962  0.4723  0.1932
    6AIB      N   72  21.608  20.799  20.583  0.2030 -0.2676 -0.1041
    6AIB     HN   73  21.670  20.826  20.656 -2.3137  0.3699  1.9432
    6AIB     CA   74  21.658  20.784  20.445 -0.4024 -0.3074  0.0770
    6AIB    CB1   75  21.810  20.838  20.430  0.0298 -0.2834  0.5333
    6AIB   HB11   76  21.883  20.766  20.471  0.0052  0.3082  1.6401
    6AIB   HB12   77  21.818  20.941  20.472  0.9859  0.0461 -0.4016
    6AIB   HB13   78  21.837  20.848  20.322 -0.4063  0.8662  0.5064
    6AIB    CB2   79  21.575  20.870  20.349 -0.4177 -0.0029  0.3012
    6AIB   HB21   80  21.624  20.859  20.250 -0.1140  1.3544  0.2868
    6AIB   HB22   81  21.571  20.978  20.376 -1.4996 -0.1317  0.6748
    6AIB   HB23   82  21.474  20.826  20.340  0.7702 -2.7289 -1.0057
    6AIB      C   83  21.659  20.639  20.395  0.0219 -0.2165  0.3040
    6AIB      O   84  21.629  20.606  20.276  0.4323 -1.1582 -0.0390
    7AIB      N   85  21.701  20.549  20.480 -0.3418  0.0687  0.2404
    7AIB     HN   86  21.741  20.577  20.567  1.1739  1.2048 -0.7594
    7AIB     CA   87  21.701  20.411  20.453 -0.1363  0.1752  1.0509
    7AIB    CB1   88  21.755  20.346  20.577 -0.0075 -0.1078 -0.3564
    7AIB   HB11   89  21.845  20.402  20.610 -0.2853 -0.2876  0.7274
    7AIB   HB12   90  21.787  20.242  20.556  0.5673  0.1959 -1.0031
    7AIB   HB13   91  21.680  20.341  20.658  0.0171  2.2138 -0.1397
    7AIB    CB2   92  21.785  20.364  20.330  1.2320  0.4707  0.4540
    7AIB   HB21   93  21.888  20.405  20.335  0.5743  2.6409 -1.7688
    7AIB   HB22   94  21.736  20.399  20.237  2.6881 -2.2343 -1.4647
    7AIB   HB23   95  21.800  20.254  20.325  0.2063  0.3685 -0.7514
    7AIB      C   96  21.562  20.352  20.422  0.6369  0.8296  0.0004
    7AIB      O   97  21.543  20.276  20.324 -0.0110 -0.0124 -0.2484
    8AIB      N   98  21.463  20.380  20.511  0.7578  0.0996 -0.4736
    8AIB     HN   99  21.474  20.452  20.579  0.8647 -0.1380 -0.2371
    8AIB     CA  100  21.342  20.305  20.526  0.6475  0.5498  0.1933
    8AIB    CB1  101  21.267  20.349  20.645  0.2734  0.2683 -0.0270
    8AIB   HB11  102  21.333  20.328  20.732 -0.7327  0.0386  0.6994
    8AIB   HB12  103  21.174  20.289  20.656 -1.0308  2.4048  1.6638
    8AIB   HB13  104  21.247  20.458  20.648 -1.2876  0.0179 -0.4257
    8AIB    CB2  105  21.375  20.153  20.546  0.4722 -0.4986  0.1588
    8AIB   HB21  106  21.284  20.106  20.590  1.1981 -0.4342  1.7914
    8AIB   HB22  107  21.458  20.154  20.619  0.1855 -1.3659  0.5114
    8AIB   HB23  108  21.400  20.103  20.450  0.2975 -0.1221 -0.0845
    8AIB      C  109  21.244  20.324  20.406 -0.1241  0.1517 -0.3355
    8AIB      O  110  21.153  20.246  20.383  0.2536  0.4483 -0.4421
    9AIB      N  111  21.278  20.427  20.326 -0.1044 -0.5562 -0.3040
    9AIB     HN  112  21.358  20.481  20.353  0.4741 -1.1291 -0.8741
    9AIB     CA  113  21.212  20.471  20.204 -0.4678  0.1823 -0.3018
    9AIB    CB1  114  21.270  20.610  20.171  0.4636  0.3791 -0.3222
    9AIB   HB11  115  21.381  20.607  20.166  0.5095  1.3491  0.0759
    9AIB   HB12  116  21.258  20.679  20.257 -0.0520  0.8936 -0.7991
    9AIB   HB13  117  21.218  20.655  20.083  0.0517  2.8606  1.1095
    9AIB    CB2  118  21.057  20.476  20.211  0.1890  0.5266 -0.3894
    9AIB   HB21  119  21.018  20.372  20.222  1.1598  0.2242  0.2688
    9AIB   HB22  120  21.028  20.523  20.115 -1.5626  0.3408  0.0157
    9AIB   HB23  121  21.013  20.539  20.291 -2.6803 -1.8743  0.1657
    9AIB      C  122  21.253  20.380  20.088  0.6294 -0.5046 -0.4704
    9AIB      O  123  21.168  20.335  20.012  0.6178  0.1126  0.0604
    9AIB     NT  124  21.389  20.374  20.067  0.6310 -0.3467  0.2330
    9AIB    HNT  125  21.456  20.395  20.138  1.2247 -3.6260  0.8018
    9AIB    CAT  126  21.450  20.294  19.966  0.0266 -0.0179 -0.6333
    9AIB    HT1  127  21.389  20.204  19.943  0.9338 -0.3897 -1.7061
    9AIB    HT2  128  21.547  20.255  20.005 -0.1428  0.3278  0.1492
    9AIB    HT3  129  21.462  20.359  19.877  0.3468  0.7484 -0.0371
  42.09246  42.09246  42.09246
