Protein
   22
    1ACE   HH31    1   0.764   8.374   4.936 -0.1658 -1.1250 -0.8618
    1ACE    CH3    2   0.831   8.382   4.851  0.5766 -0.2942 -0.2085
    1ACE   HH32    3   0.898   8.296   4.853  3.5224  1.8187 -0.2832
    1ACE   HH33    4   0.889   8.475   4.852 -0.1731  0.1827  0.4499
    1ACE      C    5   0.751   8.374   4.720  0.0242 -0.1380 -0.0174
    1ACE      O    6   0.638   8.326   4.722  0.9904  0.4297 -0.6202
    2ALA      N    7   0.806   8.414   4.604  0.0056 -0.4105  0.0314
    2ALA      H    8   0.901   8.449   4.606 -0.2280  0.2380  0.2220
    2ALA     CA    9   0.747   8.406   4.468 -0.4916 -0.2917  0.6839
    2ALA     HA   10   0.715   8.303   4.458  1.3014 -0.9920  1.7249
    2ALA     CB   11   0.629   8.508   4.465  0.3762 -0.4860  0.6873
    2ALA    HB1   12   0.565   8.480   4.381  0.9619  3.1649 -1.1901
    2ALA    HB2   13   0.568   8.503   4.556  0.4586  0.9194  0.8336
    2ALA    HB3   14   0.658   8.612   4.454  1.3765 -0.7829  0.4980
    2ALA      C   15   0.858   8.440   4.362 -0.0524 -0.2852  0.7036
    2ALA      O   16   0.974   8.460   4.398  0.1421  0.0921 -0.0488
    3NME      N   17   0.825   8.432   4.231 -0.4455  0.0578 -0.6009
    3NME      H   18   0.729   8.414   4.204 -0.7642  0.8871 -0.0379
    3NME    CH3   19   0.908   8.468   4.119 -0.0700  0.2477  0.8899
    3NME   HH31   20   0.854   8.475   4.024  1.2174 -1.2727 -0.0054
    3NME   HH32   21   0.970   8.553   4.148 -3.6078  2.3886  2.8323
    3NME   HH33   22   0.984   8.392   4.102 -0.6505  0.3489 -2.9425
  10.72160  10.72160  10.72160
