Protein
   32
    1ACE   HH31    1  10.713  12.333  15.734 -0.8018 -0.1004 -3.1269
    1ACE    CH3    2  10.674  12.430  15.704 -0.6772  0.9452 -0.1763
    1ACE   HH32    3  10.722  12.512  15.759  2.8817 -2.0382  1.6190
    1ACE   HH33    4  10.565  12.426  15.712 -0.7095 -0.9735 -1.1261
    1ACE      C    5  10.692  12.443  15.555  0.0639  0.5127 -0.2602
    1ACE      O    6  10.618  12.516  15.489  0.4433  0.5287 -0.4666
    2ALA      N    7  10.804  12.392  15.504 -0.4312 -0.0186 -0.0196
    2ALA      H    8  10.862  12.339  15.567 -1.0650  1.2025  1.6722
    2ALA     CA    9  10.861  12.420  15.370  0.8455  0.3981  0.3044
    2ALA     HA   10  10.781  12.455  15.304  0.8062  0.3833  0.3457
    2ALA     CB   11  10.968  12.532  15.376 -0.2322 -0.3110  0.1809
    2ALA    HB1   12  11.011  12.540  15.276  0.4349  1.8926  0.5914
    2ALA    HB2   13  10.932  12.627  15.414 -0.7133 -0.1128 -0.7525
    2ALA    HB3   14  11.048  12.514  15.448 -0.1675  1.6145  0.6408
    2ALA      C   15  10.917  12.286  15.325  0.3208  0.8343  0.1092
    2ALA      O   16  11.012  12.232  15.377 -0.8541  0.4943 -0.3898
    3ALA      N   17  10.864  12.234  15.219  0.5863  0.8787  0.2799
    3ALA      H   18  10.776  12.269  15.184  0.6632  1.0974  0.3019
    3ALA     CA   19  10.949  12.155  15.128  0.1892  0.6378 -0.4437
    3ALA     HA   20  11.001  12.075  15.181 -0.8590 -0.5639 -1.1670
    3ALA     CB   21  10.856  12.085  15.031 -0.1952  0.6627 -0.4724
    3ALA    HB1   22  10.783  12.022  15.081 -0.2133  0.7637 -0.3753
    3ALA    HB2   23  10.796  12.162  14.983  1.2175  1.3447 -1.2013
    3ALA    HB3   24  10.914  12.026  14.960 -1.8136 -0.9251 -0.5570
    3ALA      C   25  11.055  12.244  15.060  0.0200  0.9075  0.8076
    3ALA      O   26  11.059  12.362  15.087  0.3286  0.1246 -0.3670
    4NME      N   27  11.147  12.183  14.980 -0.1144 -0.4944 -0.4390
    4NME      H   28  11.135  12.085  14.961 -2.0596  0.1077 -2.8142
    4NME    CH3   29  11.258  12.267  14.925  0.0329 -0.1128  0.5370
    4NME   HH31   30  11.310  12.217  14.842  0.4462  0.0064  0.7270
    4NME   HH32   31  11.236  12.369  14.896  0.6422 -0.5821 -1.9066
    4NME   HH33   32  11.335  12.274  15.002  0.5159 -0.6529  0.1204
  20.99041  20.99041  20.99041
