Protein
   32
    1ACE   HH31    1   7.597   6.719  11.344  3.9599 -1.6688  0.8048
    1ACE    CH3    2   7.579   6.774  11.437 -0.4958 -0.5291 -0.4787
    1ACE   HH32    3   7.483   6.825  11.433 -0.7845 -0.5987  3.0160
    1ACE   HH33    4   7.664   6.838  11.461 -0.6116 -0.9389  1.1813
    1ACE      C    5   7.544   6.678  11.551  0.0401  0.7056 -0.2371
    1ACE      O    6   7.484   6.573  11.526  0.0360 -0.2454 -0.1964
    2ALA      N    7   7.588   6.718  11.668  0.3217 -0.0528 -0.3445
    2ALA      H    8   7.623   6.813  11.675 -0.0785  0.3400 -2.7479
    2ALA     CA    9   7.564   6.635  11.788  0.2621  0.3704  0.4694
    2ALA     HA   10   7.551   6.532  11.757 -0.1947  1.1615 -2.3328
    2ALA     CB   11   7.692   6.662  11.868 -0.5585  0.2561 -0.0735
    2ALA    HB1   12   7.687   6.764  11.904 -2.0787 -0.2036  1.1702
    2ALA    HB2   13   7.700   6.597  11.956  0.3461  0.0204 -0.3277
    2ALA    HB3   14   7.787   6.650  11.818 -0.1171 -0.7715  0.9547
    2ALA      C   15   7.437   6.674  11.868  0.0310 -0.0487  0.5024
    2ALA      O   16   7.359   6.757  11.826  0.2513 -0.5029 -0.0708
    3ALA      N   17   7.426   6.630  11.992  0.0288 -0.0714 -0.5385
    3ALA      H   18   7.502   6.578  12.033 -2.7362 -1.8109  3.0069
    3ALA     CA   19   7.341   6.681  12.099  0.7381  0.4328 -1.0339
    3ALA     HA   20   7.329   6.786  12.074  0.5243  0.7413  0.2972
    3ALA     CB   21   7.204   6.608  12.097  0.5167 -0.1144 -0.0793
    3ALA    HB1   22   7.154   6.620  12.001  2.7064  0.8189 -1.1856
    3ALA    HB2   23   7.216   6.502  12.120  1.2848 -0.0862 -0.3391
    3ALA    HB3   24   7.135   6.656  12.166  1.1920  0.2201  0.3730
    3ALA      C   25   7.407   6.702  12.234 -0.3869 -0.8479  0.2278
    3ALA      O   26   7.523   6.676  12.244 -0.2942 -0.0878  0.5139
    4NME      N   27   7.332   6.745  12.340  0.2736 -0.1102 -0.0455
    4NME      H   28   7.238   6.776  12.320  0.2033 -0.5003 -0.3221
    4NME    CH3   29   7.384   6.749  12.478 -0.9750 -0.4243 -0.0385
    4NME   HH31   30   7.411   6.645  12.499  1.4225 -0.5092 -2.7781
    4NME   HH32   31   7.471   6.815  12.479 -1.3603  0.1223 -1.3018
    4NME   HH33   32   7.306   6.785  12.544 -2.3282 -0.0113 -1.8078
  20.99041  20.99041  20.99041
