Protein
   42
    1ACE   HH31    1  11.694  10.155   7.168  0.2195  0.1146 -1.1716
    1ACE    CH3    2  11.712  10.166   7.061  0.6084  0.4120 -1.0762
    1ACE   HH32    3  11.663  10.083   7.010  1.9128 -1.6252  0.7745
    1ACE   HH33    4  11.818  10.177   7.035  1.2127  1.5706  1.5513
    1ACE      C    5  11.648  10.299   7.029 -0.2534  0.5616  0.0340
    1ACE      O    6  11.718  10.393   6.998 -0.6757  0.1446  0.2726
    2ALA      N    7  11.516  10.299   7.020 -0.2484  0.5898 -0.9104
    2ALA      H    8  11.458  10.218   7.038  0.9333 -0.0304  0.2362
    2ALA     CA    9  11.445  10.415   6.961  0.9531 -0.1017  0.1814
    2ALA     HA   10  11.501  10.446   6.873 -1.5654 -0.0550 -1.4966
    2ALA     CB   11  11.303  10.364   6.913  0.2236  0.0094  0.5226
    2ALA    HB1   12  11.234  10.448   6.900 -0.2965 -0.4930 -0.0430
    2ALA    HB2   13  11.305  10.321   6.813 -0.3135  0.5967  0.2515
    2ALA    HB3   14  11.262  10.292   6.983  0.6988 -1.8409 -1.0196
    2ALA      C   15  11.439  10.538   7.058 -0.5637 -0.6876 -0.2854
    2ALA      O   16  11.386  10.526   7.169 -0.2478 -0.4268  0.1160
    3ALA      N   17  11.480  10.659   7.014 -0.1804 -0.3131 -0.6329
    3ALA      H   18  11.455  10.732   7.079  0.5225 -0.9445  0.3666
    3ALA     CA   19  11.571  10.688   6.909  0.7212 -0.1510 -0.1106
    3ALA     HA   20  11.623  10.598   6.877 -1.2182 -1.1210 -0.7441
    3ALA     CB   21  11.498  10.753   6.791  0.5807 -0.1938  0.3246
    3ALA    HB1   22  11.573  10.786   6.719  1.1071 -3.0357 -0.5701
    3ALA    HB2   23  11.433  10.681   6.741 -0.3794 -0.9570  2.5535
    3ALA    HB3   24  11.441  10.834   6.836 -1.4802 -1.4555  0.1129
    3ALA      C   25  11.686  10.779   6.966 -0.2874  0.1879 -0.4112
    3ALA      O   26  11.666  10.896   6.974 -0.0301 -0.0615 -0.7643
    4ALA      N   27  11.788  10.712   7.010  0.4543 -0.2338  0.3390
    4ALA      H   28  11.775  10.612   7.014 -3.0355  0.1496  2.2709
    4ALA     CA   29  11.918  10.766   7.053 -0.0639 -0.0703 -0.0058
    4ALA     HA   30  11.986  10.682   7.040 -0.1899 -0.1879  0.0837
    4ALA     CB   31  11.954  10.886   6.964 -1.0032 -0.2840  0.2904
    4ALA    HB1   32  12.061  10.896   6.977 -1.1581  0.4102  1.1097
    4ALA    HB2   33  11.929  10.875   6.858 -0.8566 -1.2279  0.3468
    4ALA    HB3   34  11.916  10.984   6.993 -1.3662 -0.4372  0.3416
    4ALA      C   35  11.928  10.805   7.197  0.6331 -0.0652  0.4177
    4ALA      O   36  12.036  10.788   7.253  0.2573  0.8538  0.4001
    5NME      N   37  11.820  10.842   7.264  0.2770 -0.4042 -0.0931
    5NME      H   38  11.737  10.862   7.210 -0.0073  2.7658  1.2791
    5NME    CH3   39  11.797  10.884   7.399  0.3548 -0.0205 -0.1973
    5NME   HH31   40  11.752  10.803   7.456  0.6037 -0.1043 -0.1168
    5NME   HH32   41  11.897  10.890   7.442  0.0691 -0.8892  0.6113
    5NME   HH33   42  11.760  10.987   7.401  1.6066  0.4467 -0.5720
  20.91516  20.91516  20.91516
