Protein
   42
    1ACE   HH31    1   9.258  10.474  16.545  1.0889 -3.3336  1.2173
    1ACE    CH3    2   9.253  10.432  16.445 -0.3626  0.2833 -0.3778
    1ACE   HH32    3   9.155  10.442  16.398 -1.0849  0.3703  1.0925
    1ACE   HH33    4   9.283  10.328  16.455  3.2048  1.2752  1.0914
    1ACE      C    5   9.357  10.486  16.357  0.2910 -0.5319 -0.2012
    1ACE      O    6   9.431  10.409  16.296 -0.8431 -0.6974 -0.5944
    2ALA      N    7   9.364  10.618  16.346  0.2801 -0.7373 -0.2273
    2ALA      H    8   9.311  10.670  16.414  1.6277 -0.8044  0.9110
    2ALA     CA    9   9.461  10.697  16.269  0.0673  0.7709  0.4426
    2ALA     HA   10   9.539  10.632  16.230 -0.2854  1.2615 -1.1319
    2ALA     CB   11   9.384  10.753  16.142 -0.0743  0.0977 -0.6023
    2ALA    HB1   12   9.337  10.663  16.103  1.3609 -1.4215  1.0179
    2ALA    HB2   13   9.313  10.828  16.179  1.3742  0.2841  2.0706
    2ALA    HB3   14   9.454  10.799  16.073 -0.7371  1.6339 -0.3054
    2ALA      C   15   9.520  10.812  16.342  0.2937 -0.4375 -0.6422
    2ALA      O   16   9.534  10.920  16.279 -0.3929  0.0960  0.0736
    3ALA      N   17   9.526  10.803  16.474  0.3861 -0.5878  0.0333
    3ALA      H   18   9.523  10.709  16.511  1.4143 -0.8387 -0.4496
    3ALA     CA   19   9.557  10.902  16.579  0.2077 -0.7212  0.3966
    3ALA     HA   20   9.609  10.857  16.663 -0.3906  2.9780  2.9972
    3ALA     CB   21   9.644  11.017  16.539  0.5901  0.5497  0.4055
    3ALA    HB1   22   9.740  10.979  16.505  0.4820  0.9880 -0.4240
    3ALA    HB2   23   9.604  11.084  16.462  0.8430  0.3878  0.1336
    3ALA    HB3   24   9.673  11.070  16.630  0.0031  1.3547  0.1406
    3ALA      C   25   9.422  10.939  16.647  0.1388 -0.5188  0.0262
    3ALA      O   26   9.398  10.907  16.763 -0.6062  0.3037 -0.6466
    4ALA      N   27   9.329  10.998  16.568  0.7665 -0.2514  0.6998
    4ALA      H   28   9.365  11.012  16.475  2.3980  1.3509  1.5049
    4ALA     CA   29   9.191  10.984  16.597 -0.4075  0.2836  0.4074
    4ALA     HA   30   9.182  11.020  16.699 -0.4834 -0.3535  0.6288
    4ALA     CB   31   9.106  11.052  16.495  0.7761 -1.0990 -0.0794
    4ALA    HB1   32   9.112  11.001  16.399  0.2438  0.4329 -0.9727
    4ALA    HB2   33   9.005  11.057  16.536  1.3026  1.2500  1.1148
    4ALA    HB3   34   9.124  11.159  16.489  1.3128 -1.1942 -0.1847
    4ALA      C   35   9.151  10.836  16.600  0.8713 -0.0092 -0.0906
    4ALA      O   36   9.196  10.757  16.518  0.4488 -1.0637 -0.0703
    5NME      N   37   9.063  10.800  16.694 -0.2209 -0.0537  0.0567
    5NME      H   38   9.048  10.864  16.771  2.5007  0.3307  0.3881
    5NME    CH3   39   9.002  10.666  16.712 -0.2727 -0.2992  0.2038
    5NME   HH31   40   9.058  10.602  16.779 -0.7839 -0.1483  0.7846
    5NME   HH32   41   8.898  10.681  16.740 -0.0317  4.0106 -0.5237
    5NME   HH33   42   8.992  10.613  16.617 -0.1269  0.9313 -0.5387
  20.91516  20.91516  20.91516
