<<<<<<< HEAD
Protein
   42
    1ACE   HH31    1  14.035  16.185  15.448  0.3256  0.4212  0.1704
    1ACE    CH3    2  14.105  16.208  15.527  0.5245  0.5526 -0.0404
    1ACE   HH32    3  14.152  16.112  15.546  1.1868  1.1948  1.8908
    1ACE   HH33    4  14.046  16.261  15.602  0.4616  0.8918 -0.3230
    1ACE      C    5  14.207  16.304  15.488 -0.0671  0.6915  0.5341
    1ACE      O    6  14.238  16.302  15.368  0.8013 -0.0537 -0.5178
    2ALA      N    7  14.242  16.390  15.579  0.2309  0.3180  0.3426
    2ALA      H    8  14.193  16.376  15.666 -1.8398  1.4934 -0.5576
    2ALA     CA    9  14.357  16.484  15.564 -0.5054 -0.0846  0.2302
    2ALA     HA   10  14.433  16.435  15.504 -0.6529  0.0816 -0.1002
    2ALA     CB   11  14.318  16.616  15.493  0.0584  0.6192 -0.1245
    2ALA    HB1   12  14.271  16.701  15.543  1.7633  0.2484  2.2303
    2ALA    HB2   13  14.406  16.644  15.435 -1.4847  0.6813 -2.5588
    2ALA    HB3   14  14.245  16.583  15.419  1.0136 -1.3888 -0.2063
    2ALA      C   15  14.428  16.516  15.699  0.7607  0.1132  0.0683
    2ALA      O   16  14.408  16.440  15.799  0.2981  0.0323 -0.4114
    3ALA      N   17  14.501  16.626  15.710 -0.0645  0.3794  0.3655
    3ALA      H   18  14.515  16.680  15.625  1.0764 -0.4637 -0.0261
    3ALA     CA   19  14.551  16.681  15.837 -0.2357 -0.0652  0.1891
    3ALA     HA   20  14.625  16.614  15.881 -0.7106 -0.9886 -0.3770
    3ALA     CB   21  14.616  16.820  15.806  0.4383 -0.2355  0.9056
    3ALA    HB1   22  14.703  16.803  15.742 -1.2476  0.5010 -1.7031
    3ALA    HB2   23  14.550  16.885  15.748  2.3530  0.8704 -0.1974
    3ALA    HB3   24  14.647  16.867  15.899  0.3753  3.4166 -0.7399
    3ALA      C   25  14.431  16.695  15.942 -0.3730 -0.7915  0.3955
    3ALA      O   26  14.327  16.765  15.910  0.0644  0.0555 -0.1798
    4ALA      N   27  14.443  16.625  16.057  0.6694 -0.3630  0.6162
    4ALA      H   28  14.534  16.587  16.078  1.7374  2.0844  0.6910
    4ALA     CA   29  14.356  16.610  16.169  0.6707  0.4896 -0.6258
    4ALA     HA   30  14.412  16.555  16.246  0.9866  0.3899 -0.9295
    4ALA     CB   31  14.301  16.745  16.223  0.4085  0.0886  0.9860
    4ALA    HB1   32  14.227  16.774  16.149  0.1847 -2.9381 -0.1211
    4ALA    HB2   33  14.259  16.730  16.322  1.5623  0.0450  1.4821
    4ALA    HB3   34  14.379  16.821  16.232  1.4777 -0.9482  0.7550
    4ALA      C   35  14.234  16.509  16.154 -0.9561 -0.2060 -0.0921
    4ALA      O   36  14.154  16.494  16.249  0.1800  0.0260 -0.4393
    5NME      N   37  14.223  16.434  16.046 -0.0571  0.4617  0.4602
    5NME      H   38  14.270  16.471  15.964 -0.1204  0.4776  0.4276
    5NME    CH3   39  14.125  16.327  16.018 -0.7858 -0.2018 -0.1377
    5NME   HH31   40  14.115  16.266  16.108  2.5618  0.8803  1.1452
    5NME   HH32   41  14.032  16.364  15.976 -1.1039 -1.6695 -0.7949
    5NME   HH33   42  14.163  16.257  15.944 -0.7488 -1.1767  0.7549
  20.91516  20.91516  20.91516
=======
Protein
   42
    1ACE   HH31    1   8.795  14.803  16.529  0.5855 -0.8520 -0.0392
    1ACE    CH3    2   8.782  14.771  16.632 -0.2993 -0.0251  0.1259
    1ACE   HH32    3   8.882  14.782  16.675  0.8332  1.0934 -2.6101
    1ACE   HH33    4   8.758  14.665  16.638  0.6291 -0.2855 -0.4702
    1ACE      C    5   8.691  14.868  16.704 -0.5034  0.3273 -0.2052
    1ACE      O    6   8.749  14.936  16.794 -0.1875  0.2849  0.0989
    2ALA      N    7   8.565  14.883  16.669  0.2181 -0.1483  0.3382
    2ALA      H    8   8.521  14.816  16.608 -0.0980 -0.3158  0.7499
    2ALA     CA    9   8.474  14.966  16.747 -0.1008 -0.7823  0.4301
    2ALA     HA   10   8.495  15.072  16.730 -0.2127 -0.5714  1.5389
    2ALA     CB   11   8.330  14.948  16.698  0.1295  0.3246  0.0310
    2ALA    HB1   12   8.307  14.842  16.706  2.1958 -0.1712 -0.2432
    2ALA    HB2   13   8.247  15.001  16.745 -0.4215 -0.3303 -0.1837
    2ALA    HB3   14   8.323  14.985  16.595 -1.4557 -1.6834 -0.6704
    2ALA      C   15   8.491  14.940  16.891  0.0887  1.2971  0.2400
    2ALA      O   16   8.485  14.825  16.929  0.2904  0.7660  0.4099
    3ALA      N   17   8.506  15.050  16.965  0.8888  0.5990 -0.2812
    3ALA      H   18   8.488  15.138  16.920  1.8557  1.2019  0.4850
    3ALA     CA   19   8.518  15.044  17.115  0.5996  0.2097  0.0363
    3ALA     HA   20   8.528  15.146  17.153  0.5782  0.2402 -0.0413
    3ALA     CB   21   8.391  14.994  17.171 -0.4564  0.1615 -0.3066
    3ALA    HB1   22   8.308  15.040  17.118 -0.6756  0.8678  0.6380
    3ALA    HB2   23   8.380  14.887  17.152  1.9567 -0.5013  1.5713
    3ALA    HB3   24   8.381  15.014  17.278  1.0704 -3.1349  0.6053
    3ALA      C   25   8.636  14.962  17.172  0.2644  0.0314  0.5464
    3ALA      O   26   8.639  14.937  17.291 -0.4769  0.3572 -0.0944
    4ALA      N   27   8.739  14.920  17.094 -0.0283  0.0588  0.3416
    4ALA      H   28   8.730  14.955  16.999 -0.9665  3.9423  1.6760
    4ALA     CA   29   8.852  14.831  17.119  0.1282  0.1190  0.0555
    4ALA     HA   30   8.926  14.866  17.048 -0.3897 -0.2142 -0.6588
    4ALA     CB   31   8.909  14.852  17.261 -0.4518 -0.2438  0.4126
    4ALA    HB1   32   8.844  14.809  17.336 -1.6089 -0.5131 -0.7148
    4ALA    HB2   33   9.016  14.833  17.270  0.1578  2.7880  0.8859
    4ALA    HB3   34   8.910  14.959  17.285  0.1988 -0.3295  0.7659
    4ALA      C   35   8.834  14.681  17.077  0.0232  0.1277 -0.4808
    4ALA      O   36   8.932  14.614  17.072 -0.3420  0.2793 -0.4154
    5NME      N   37   8.709  14.629  17.066 -0.1028 -0.0448  0.3484
    5NME      H   38   8.627  14.688  17.064  0.3373  0.6381  1.2107
    5NME    CH3   39   8.698  14.488  17.042 -0.7410 -0.0102 -0.7256
    5NME   HH31   40   8.763  14.457  16.959 -0.1743 -1.6950  0.3079
    5NME   HH32   41   8.713  14.439  17.138  1.3913  2.7537  0.5000
    5NME   HH33   42   8.593  14.468  17.019 -0.9556  2.5916 -2.3627
  20.91516  20.91516  20.91516
>>>>>>> e505351e8895c44bcd67ad8436d05c0eaca14691
