Protein
   22
    1ACE   HH31    1   6.738   9.023   2.528 -0.9900  0.8736 -0.3682
    1ACE    CH3    2   6.783   9.052   2.623 -0.7523  0.3363 -0.3176
    1ACE   HH32    3   6.705   9.079   2.694  0.6533  0.7192  1.1160
    1ACE   HH33    4   6.849   9.137   2.608 -0.8322  0.9857  2.4559
    1ACE      C    5   6.856   8.937   2.670 -0.2460 -0.3680  0.6958
    1ACE      O    6   6.882   8.850   2.587  0.3424 -0.3671  0.1314
    2ALA      N    7   6.914   8.939   2.788 -0.1546  0.1932  0.5149
    2ALA      H    8   6.897   9.023   2.842  0.0627  0.7347 -0.2542
    2ALA     CA    9   7.006   8.843   2.840  0.2492  0.2065 -0.0696
    2ALA     HA   10   7.031   8.873   2.942  2.5626 -1.8767  0.1009
    2ALA     CB   11   6.939   8.707   2.868  0.4577  0.2042 -0.5474
    2ALA    HB1   12   6.998   8.643   2.933 -0.3531 -1.5683 -1.4765
    2ALA    HB2   13   6.846   8.722   2.923  0.0770 -4.4833  0.5776
    2ALA    HB3   14   6.918   8.659   2.772  0.3598  0.4637 -0.6574
    2ALA      C   15   7.141   8.849   2.766 -0.3291 -0.1103 -0.1563
    2ALA      O   16   7.204   8.956   2.771  0.2735 -0.1567 -0.3994
    3NME      N   17   7.182   8.732   2.710 -0.7226  0.8260 -0.5995
    3NME      H   18   7.122   8.652   2.717  1.7466 -1.1497 -0.6546
    3NME    CH3   19   7.304   8.718   2.628 -0.6536 -0.0353 -0.5335
    3NME   HH31   20   7.283   8.740   2.523  1.6166 -0.9777 -1.2397
    3NME   HH32   21   7.374   8.794   2.666 -2.0337  0.3814  1.2967
    3NME   HH33   22   7.351   8.620   2.631  0.5188  0.5330  0.6845
  10.72160  10.72160  10.72160
