Protein
   32
    1ACE   HH31    1   7.461  12.592  10.137 -1.9472  0.7887 -0.4552
    1ACE    CH3    2   7.508  12.646  10.055  0.3306 -0.2783  0.0718
    1ACE   HH32    3   7.610  12.621  10.026 -0.3565 -1.7149 -1.2596
    1ACE   HH33    4   7.504  12.750  10.088  1.3412 -0.4412  0.7101
    1ACE      C    5   7.426  12.649   9.929 -0.5914  0.8705  0.1768
    1ACE      O    6   7.482  12.643   9.816  0.4863  0.4387  0.0169
    2ALA      N    7   7.297  12.661   9.951  0.1363  0.3489  0.5977
    2ALA      H    8   7.264  12.694  10.041 -0.4746  1.4904 -0.0221
    2ALA     CA    9   7.200  12.672   9.844 -0.0412  0.3805  0.3148
    2ALA     HA   10   7.236  12.607   9.764  0.3805  1.7486 -0.6601
    2ALA     CB   11   7.061  12.622   9.894  0.2245  0.0720 -0.1640
    2ALA    HB1   12   6.985  12.650   9.822  0.1624  1.8434  0.5369
    2ALA    HB2   13   7.058  12.515   9.917  0.6690  0.1525  0.3162
    2ALA    HB3   14   7.037  12.669   9.989  0.0630 -1.5522  0.6397
    2ALA      C   15   7.187  12.814   9.791  1.0510 -0.0041 -0.2839
    2ALA      O   16   7.105  12.890   9.846 -0.0894 -0.2059  0.1058
    3ALA      N   17   7.276  12.853   9.700 -0.1026  0.0667  0.3823
    3ALA      H   18   7.338  12.783   9.663  0.3147  0.0417  1.1179
    3ALA     CA   19   7.280  12.990   9.644  0.5410 -0.1608 -0.2778
    3ALA     HA   20   7.189  13.048   9.660  0.4494  0.1609 -1.7679
    3ALA     CB   21   7.391  13.074   9.716  0.0031 -0.4078 -0.5867
    3ALA    HB1   22   7.377  13.079   9.824  1.3225  1.4228 -0.4628
    3ALA    HB2   23   7.483  13.020   9.696 -0.2101 -0.9499 -0.1431
    3ALA    HB3   24   7.400  13.178   9.684 -0.4968 -0.2789 -0.3371
    3ALA      C   25   7.277  12.993   9.490 -0.2232  0.1081 -0.2664
    3ALA      O   26   7.179  12.943   9.444 -0.1395  0.4830  0.1104
    4NME      N   27   7.378  13.038   9.420 -0.4309 -0.2654  0.7117
    4NME      H   28   7.460  13.075   9.466  1.5391 -1.8609 -1.3216
    4NME    CH3   29   7.382  13.020   9.274 -0.5279  0.6483 -0.0981
    4NME   HH31   30   7.281  13.024   9.234 -0.7749 -1.7884  0.1409
    4NME   HH32   31   7.444  13.092   9.220 -0.2434 -1.5230 -2.8022
    4NME   HH33   32   7.431  12.926   9.252  0.7873  1.1626  0.4835
  20.99041  20.99041  20.99041
