Protein
   42
    1ACE   HH31    1  12.350   7.268  12.282  2.6179 -0.4096  2.3999
    1ACE    CH3    2  12.329   7.162  12.302 -0.2894 -0.3369  0.3801
    1ACE   HH32    3  12.264   7.130  12.221  3.0711 -1.9270 -1.8544
    1ACE   HH33    4  12.273   7.149  12.394 -1.2270 -2.0488 -0.4089
    1ACE      C    5  12.461   7.076  12.319  0.0337 -0.7364  0.3260
    1ACE      O    6  12.487   7.035  12.435 -0.3330  0.4907  0.2269
    2ALA      N    7  12.542   7.060  12.213  0.3849 -0.1956 -0.3735
    2ALA      H    8  12.516   7.102  12.125 -0.1718  0.3392  0.0342
    2ALA     CA    9  12.653   6.969  12.210 -0.2126  0.1328 -0.0342
    2ALA     HA   10  12.728   7.003  12.281  0.1644  0.3026 -0.5065
    2ALA     CB   11  12.618   6.816  12.241  0.0863  0.5558 -0.2929
    2ALA    HB1   12  12.517   6.792  12.209  0.3800 -0.1241 -0.7340
    2ALA    HB2   13  12.690   6.746  12.198  2.9606  0.9638  3.2429
    2ALA    HB3   14  12.629   6.792  12.347 -1.2131  1.6538  0.1291
    2ALA      C   15  12.716   6.974  12.067 -0.1167  0.7415  0.0518
    2ALA      O   16  12.641   6.996  11.972  0.2744  0.0576  0.3163
    3ALA      N   17  12.847   6.964  12.041 -0.5857 -0.6569  0.2713
    3ALA      H   18  12.874   7.008  11.954 -3.4183 -1.1042 -0.9584
    3ALA     CA   19  12.944   6.928  12.138  0.0008  0.3964 -0.6339
    3ALA     HA   20  12.909   6.921  12.241  0.9898 -0.1244 -0.3184
    3ALA     CB   21  12.978   6.780  12.098  0.0644 -0.2123 -0.3496
    3ALA    HB1   22  12.893   6.729  12.054 -1.1890  1.0371  0.5242
    3ALA    HB2   23  13.057   6.773  12.024  0.3384 -0.1964 -0.0681
    3ALA    HB3   24  13.011   6.737  12.193 -1.2796 -0.3237  0.0832
    3ALA      C   25  13.068   7.011  12.129 -0.5515  0.1686  0.7637
    3ALA      O   26  13.096   7.067  12.025 -0.4444 -0.3266  0.2601
    4ALA      N   27  13.142   7.014  12.241  0.8250 -0.0974 -0.0229
    4ALA      H   28  13.103   6.965  12.321  0.2915 -0.0832 -0.2690
    4ALA     CA   29  13.245   7.117  12.276 -0.3193 -0.7269 -0.7046
    4ALA     HA   30  13.332   7.112  12.210 -0.1469  1.1762 -0.6780
    4ALA     CB   31  13.184   7.252  12.261 -0.0415 -0.4432 -0.4038
    4ALA    HB1   32  13.143   7.269  12.162 -0.4564  1.3289  0.0145
    4ALA    HB2   33  13.126   7.277  12.350  0.8727  1.5295 -0.2918
    4ALA    HB3   34  13.266   7.324  12.264  0.7394 -1.0509 -3.4894
    4ALA      C   35  13.275   7.097  12.424  0.3760 -0.3701 -0.8679
    4ALA      O   36  13.196   7.032  12.496 -0.4211  0.8934  0.9430
    5NME      N   37  13.380   7.160  12.468 -0.0981 -0.3669  0.0102
    5NME      H   38  13.430   7.214  12.399  0.1091  0.8365  1.0606
    5NME    CH3   39  13.420   7.161  12.610  0.0136 -0.6020 -0.0576
    5NME   HH31   40  13.405   7.061  12.651 -0.6379 -0.2873  0.5226
    5NME   HH32   41  13.526   7.186  12.618 -0.2671  0.5352  0.2435
    5NME   HH33   42  13.358   7.224  12.674  0.2553  0.4930 -0.8796
  20.91516  20.91516  20.91516
