Protein
   42
    1ACE   HH31    1   7.477  13.561  14.625 -0.0331  0.7077 -0.9973
    1ACE    CH3    2   7.510  13.502  14.539  0.3345  0.0955 -0.4537
    1ACE   HH32    3   7.616  13.521  14.526  0.0610  2.0920 -0.1711
    1ACE   HH33    4   7.444  13.516  14.453 -0.6507  0.1624  0.3016
    1ACE      C    5   7.490  13.365  14.586  0.2172 -0.3766 -0.7161
    1ACE      O    6   7.540  13.340  14.700  0.0018 -0.6578 -0.4835
    2ALA      N    7   7.419  13.268  14.523 -0.4359 -0.4811 -0.2626
    2ALA      H    8   7.373  13.301  14.439 -0.9280 -2.3208 -0.7694
    2ALA     CA    9   7.404  13.124  14.557 -0.8386  0.2479 -0.6689
    2ALA     HA   10   7.315  13.115  14.620  0.9836 -0.4233  1.9904
    2ALA     CB   11   7.363  13.052  14.423  0.2204 -0.1774 -0.7789
    2ALA    HB1   12   7.283  13.112  14.382 -1.1291 -1.1575  0.3004
    2ALA    HB2   13   7.453  13.048  14.362 -0.8848 -1.6708 -2.3833
    2ALA    HB3   14   7.325  12.953  14.450 -0.7643  0.7762  1.5632
    2ALA      C   15   7.520  13.051  14.628 -0.1254 -0.1560 -0.3284
    2ALA      O   16   7.596  12.970  14.566 -0.2368  0.1278  0.6659
    3ALA      N   17   7.516  13.068  14.760 -0.2120  0.6102 -0.2974
    3ALA      H   18   7.441  13.126  14.794 -0.0672  0.6527 -0.0479
    3ALA     CA   19   7.620  13.026  14.854 -0.3504 -0.6346 -0.9062
    3ALA     HA   20   7.595  12.928  14.894 -1.1968  0.3513  1.1930
    3ALA     CB   21   7.762  13.025  14.797  0.0701 -0.0875 -0.4358
    3ALA    HB1   22   7.831  13.012  14.881 -0.1574  1.7572  0.0730
    3ALA    HB2   23   7.772  12.946  14.723 -1.7753  0.8425 -1.7247
    3ALA    HB3   24   7.782  13.123  14.755  1.3675  1.3813  3.1508
    3ALA      C   25   7.617  13.108  14.985  0.1749 -0.2112 -0.2786
    3ALA      O   26   7.638  13.054  15.093  0.2870 -0.2037  0.3521
    4ALA      N   27   7.599  13.237  14.980  0.1624 -0.5982  0.1823
    4ALA      H   28   7.593  13.270  14.885  1.5562 -4.0606 -1.2818
    4ALA     CA   29   7.539  13.327  15.077 -0.0533 -0.6556 -0.2029
    4ALA     HA   30   7.628  13.368  15.124  0.6789 -1.9541 -0.3977
    4ALA     CB   31   7.459  13.434  14.998  0.2782  0.4540 -0.0470
    4ALA    HB1   32   7.400  13.504  15.057  0.9181  0.1345  0.9950
    4ALA    HB2   33   7.524  13.489  14.929 -0.5992  1.3277 -0.2186
    4ALA    HB3   34   7.382  13.387  14.937 -0.8806  1.4287  0.6090
    4ALA      C   35   7.450  13.264  15.182  0.1413  0.2337  0.2527
    4ALA      O   36   7.329  13.252  15.171 -0.6805  0.0220  0.3397
    5NME      N   37   7.514  13.214  15.289  0.2768  0.3831  0.7373
    5NME      H   38   7.614  13.201  15.285  0.0918 -0.9954 -2.5199
    5NME    CH3   39   7.450  13.169  15.416 -1.1304 -0.5193  0.4339
    5NME   HH31   40   7.506  13.194  15.505 -1.1853  0.1804  0.2810
    5NME   HH32   41   7.343  13.193  15.418 -1.1460 -0.4997 -0.4177
    5NME   HH33   42   7.449  13.060  15.423 -2.4717 -0.5562  0.0139
  20.91516  20.91516  20.91516
