Protein
   42
    1ACE   HH31    1  12.047  12.983   3.750  0.7840  0.2481 -0.9503
    1ACE    CH3    2  11.981  13.065   3.778  0.7662 -0.0960  0.0485
    1ACE   HH32    3  12.037  13.158   3.777  0.4193  0.1039 -1.1950
    1ACE   HH33    4  11.955  13.026   3.877  0.3986 -0.5612 -0.2266
    1ACE      C    5  11.861  13.068   3.688  0.1246  0.1329  0.3761
    1ACE      O    6  11.760  12.993   3.712 -0.3836 -0.1987  0.5358
    2ALA      N    7  11.859  13.166   3.601  0.2171 -0.0469  0.0137
    2ALA      H    8  11.950  13.202   3.578 -0.9012  1.8763 -1.7943
    2ALA     CA    9  11.760  13.185   3.492  0.5887 -0.0613 -0.0864
    2ALA     HA   10  11.676  13.241   3.533  0.6137 -0.4065  0.4469
    2ALA     CB   11  11.811  13.281   3.382  0.0062 -0.0654  0.4570
    2ALA    HB1   12  11.893  13.343   3.417 -0.4332  0.1198  1.1828
    2ALA    HB2   13  11.857  13.222   3.303  1.2714  0.2628  0.9102
    2ALA    HB3   14  11.733  13.335   3.327  0.4792 -1.4720 -1.7273
    2ALA      C   15  11.699  13.058   3.437  0.2930  0.5975 -0.5259
    2ALA      O   16  11.755  13.003   3.345  0.4193  0.4238 -0.4835
    3ALA      N   17  11.581  13.009   3.490 -0.5292 -0.4641 -0.3459
    3ALA      H   18  11.542  13.061   3.567  2.0601 -0.9869  1.4670
    3ALA     CA   19  11.528  12.874   3.483  0.4677  0.7154  0.4772
    3ALA     HA   20  11.495  12.851   3.584  0.1554  0.2849  0.2821
    3ALA     CB   21  11.419  12.863   3.370  0.2673  0.1205 -0.1535
    3ALA    HB1   22  11.463  12.888   3.274 -0.0196 -0.5638 -0.4636
    3ALA    HB2   23  11.381  12.761   3.366  0.9738 -0.1672  0.1380
    3ALA    HB3   24  11.327  12.920   3.382  0.8521  1.6275 -2.3023
    3ALA      C   25  11.640  12.764   3.470  0.1546 -0.1358  0.1976
    3ALA      O   26  11.637  12.670   3.394 -0.3816 -0.3085  0.2055
    4ALA      N   27  11.740  12.769   3.551  0.6106  0.6547  0.1509
    4ALA      H   28  11.756  12.855   3.601 -0.0460 -0.4117  2.3669
    4ALA     CA   29  11.872  12.683   3.533  0.8444 -0.2824  0.2475
    4ALA     HA   30  11.849  12.581   3.502  0.0623  0.0460 -0.3045
    4ALA     CB   31  11.958  12.755   3.423  0.3907 -0.0161  0.4015
    4ALA    HB1   32  12.051  12.703   3.400  0.8962  1.5988 -1.3811
    4ALA    HB2   33  11.904  12.767   3.330 -0.0461 -0.4478  0.5940
    4ALA    HB3   34  11.976  12.858   3.454 -0.0613  0.3563 -0.5711
    4ALA      C   35  11.946  12.671   3.665 -0.3192  0.0783 -0.1386
    4ALA      O   36  12.065  12.629   3.666 -0.1503 -0.1406  0.1961
    5NME      N   37  11.878  12.692   3.771 -0.4913 -0.0806 -0.1323
    5NME      H   38  11.790  12.742   3.767 -0.9009 -0.0019  4.6746
    5NME    CH3   39  11.912  12.669   3.910  0.7511  0.2034 -0.3296
    5NME   HH31   40  11.991  12.739   3.936 -0.9380  1.5585  1.4748
    5NME   HH32   41  11.838  12.684   3.989 -0.0363 -1.6851 -0.6550
    5NME   HH33   42  11.944  12.565   3.917  2.0258  0.6245  0.6543
  20.91516  20.91516  20.91516
