Protein
   42
    1ACE   HH31    1   6.037  13.201   5.387  4.5659  1.4257 -2.9698
    1ACE    CH3    2   6.091  13.111   5.418  0.1964 -0.4384  0.2079
    1ACE   HH32    3   6.172  13.080   5.352  1.4260 -0.4446  1.6666
    1ACE   HH33    4   6.020  13.029   5.427 -0.9804  0.2944 -1.7423
    1ACE      C    5   6.154  13.132   5.553 -0.2756  0.5510  0.2794
    1ACE      O    6   6.078  13.145   5.650  0.5392  0.1715 -0.0198
    2ALA      N    7   6.287  13.132   5.562 -0.0219  0.4568  0.1218
    2ALA      H    8   6.344  13.127   5.480 -0.3201 -0.3614 -0.0433
    2ALA     CA    9   6.351  13.112   5.691  0.1334 -0.3556 -0.9468
    2ALA     HA   10   6.280  13.096   5.772  1.5525  1.9490  0.8709
    2ALA     CB   11   6.440  12.986   5.677 -0.8876 -0.1397  0.1732
    2ALA    HB1   12   6.509  12.963   5.758  1.4387 -2.1342 -2.1796
    2ALA    HB2   13   6.369  12.904   5.665 -0.6049 -0.2735 -0.6818
    2ALA    HB3   14   6.502  12.994   5.588 -0.7626 -1.0035  0.1805
    2ALA      C   15   6.430  13.235   5.736  0.0953 -0.9567 -0.5693
    2ALA      O   16   6.540  13.245   5.687 -0.3079 -0.1764  0.6723
    3ALA      N   17   6.386  13.335   5.823 -0.8302  0.0629 -0.1159
    3ALA      H   18   6.453  13.403   5.854 -0.1292 -1.2444  1.3680
    3ALA     CA   19   6.246  13.353   5.861  0.2474 -0.0200 -1.0932
    3ALA     HA   20   6.182  13.272   5.825  0.1710 -0.3539 -0.2442
    3ALA     CB   21   6.225  13.349   6.017 -0.2412 -0.5939  0.3607
    3ALA    HB1   22   6.258  13.441   6.064 -2.1527 -0.5556  1.7866
    3ALA    HB2   23   6.117  13.347   6.035 -0.4057  2.1204  0.0543
    3ALA    HB3   24   6.279  13.263   6.056  0.5444  0.2783  1.2331
    3ALA      C   25   6.182  13.477   5.792  0.0504 -0.0172 -0.3765
    3ALA      O   26   6.248  13.582   5.793 -0.4563  0.7655 -0.1029
    4ALA      N   27   6.061  13.466   5.741  0.9727 -0.2504  0.2481
    4ALA      H   28   6.015  13.376   5.741  0.5090 -0.0180  0.0580
    4ALA     CA   29   5.980  13.580   5.703  0.1398  0.3110 -0.8822
    4ALA     HA   30   5.875  13.551   5.713 -0.1996  0.6964 -2.8603
    4ALA     CB   31   5.995  13.705   5.792 -0.3972  0.1765 -0.8970
    4ALA    HB1   32   6.009  13.663   5.892  0.3337 -5.1389 -2.8569
    4ALA    HB2   33   6.074  13.765   5.748  1.6201 -1.5440  0.0995
    4ALA    HB3   34   5.905  13.767   5.789 -1.7844 -1.3295  2.5806
    4ALA      C   35   5.998  13.599   5.553 -0.0640  0.9087  0.1724
    4ALA      O   36   5.913  13.558   5.476 -0.0963 -0.4451 -0.3277
    5NME      N   37   6.119  13.650   5.515  0.6706  0.1072  0.0114
    5NME      H   38   6.184  13.670   5.590  2.2576  0.3175 -1.3857
    5NME    CH3   39   6.150  13.694   5.377 -1.1430  0.7635  0.2333
    5NME   HH31   40   6.139  13.802   5.369 -0.4400  1.0817  2.8754
    5NME   HH32   41   6.254  13.667   5.359 -1.6212 -0.0124 -1.6110
    5NME   HH33   42   6.088  13.650   5.299 -0.1619  2.1871 -1.4078
  20.91516  20.91516  20.91516
