Protein
   42
    1ACE   HH31    1   9.350  10.916  10.250  0.6294 -0.4997 -3.0210
    1ACE    CH3    2   9.457  10.933  10.262  0.3830 -0.4904 -0.3843
    1ACE   HH32    3   9.470  11.037  10.232  1.7762 -0.6057 -0.2494
    1ACE   HH33    4   9.518  10.862  10.207  1.7852 -1.3412  2.1203
    1ACE      C    5   9.489  10.912  10.409  0.2074 -0.1019 -0.3842
    1ACE      O    6   9.596  10.863  10.448  0.1364  0.1986 -0.0432
    2ALA      N    7   9.395  10.959  10.497 -0.0066  0.1161 -0.1093
    2ALA      H    8   9.318  11.004  10.450  0.8018 -0.5613 -2.2236
    2ALA     CA    9   9.399  10.958  10.648  0.3772 -0.6938  0.4567
    2ALA     HA   10   9.398  10.852  10.673 -0.6883 -0.8041  0.0013
    2ALA     CB   11   9.516  11.047  10.697 -0.1384 -0.4292  0.3033
    2ALA    HB1   12   9.612  11.025  10.651  0.2326 -0.0345  0.8764
    2ALA    HB2   13   9.496  11.152  10.676 -0.5125 -0.5575  0.0051
    2ALA    HB3   14   9.533  11.036  10.804  1.2086  0.4030  0.1883
    2ALA      C   15   9.265  11.022  10.698  0.1491  0.3992  0.2616
    2ALA      O   16   9.209  11.096  10.618  0.0813  0.4811 -0.3150
    3ALA      N   17   9.222  11.019  10.826  0.3712 -0.7091  0.8843
    3ALA      H   18   9.133  11.066  10.835 -0.2005 -1.2850 -1.2622
    3ALA     CA   19   9.266  10.934  10.936  0.1087 -0.3894 -0.1421
    3ALA     HA   20   9.366  10.966  10.963 -0.5579  1.1781  0.5732
    3ALA     CB   21   9.184  10.961  11.057 -0.2278  0.9666 -0.2943
    3ALA    HB1   22   9.211  10.889  11.134  1.7505  0.3886 -1.4663
    3ALA    HB2   23   9.205  11.063  11.090 -0.0618  0.2321  1.9954
    3ALA    HB3   24   9.077  10.952  11.037  0.1304 -1.3922 -1.4096
    3ALA      C   25   9.272  10.785  10.904  0.0596 -0.0404  0.1345
    3ALA      O   26   9.199  10.740  10.809  0.0329  0.3560 -0.1762
    4ALA      N   27   9.356  10.704  10.969 -0.0717 -0.3457 -0.2625
    4ALA      H   28   9.407  10.740  11.049 -1.7138  3.7866 -0.8098
    4ALA     CA   29   9.345  10.561  10.956 -0.6430 -0.1433  0.5353
    4ALA     HA   30   9.265  10.529  10.889 -1.1671  1.0580  0.5493
    4ALA     CB   31   9.487  10.523  10.910  0.0395  0.3070  0.2965
    4ALA    HB1   32   9.512  10.586  10.825 -0.3374 -0.1009 -0.1299
    4ALA    HB2   33   9.566  10.521  10.984  0.2474  2.4551  0.1804
    4ALA    HB3   34   9.472  10.422  10.871 -2.2820  1.0816 -1.0805
    4ALA      C   35   9.321  10.497  11.098 -0.5299  0.0857 -0.2200
    4ALA      O   36   9.332  10.570  11.200  0.0106  0.0621  0.1081
    5NME      N   37   9.284  10.372  11.100 -0.5494  0.0387 -0.1450
    5NME      H   38   9.281  10.331  11.008 -0.6327  1.0581 -0.6137
    5NME    CH3   39   9.238  10.291  11.210  0.0592  0.1545 -0.0736
    5NME   HH31   40   9.129  10.290  11.210 -0.0462  2.8277  1.2883
    5NME   HH32   41   9.268  10.187  11.197 -2.8059 -0.5653 -1.7411
    5NME   HH33   42   9.266  10.343  11.302  0.4794  0.7351 -0.5234
  20.91516  20.91516  20.91516
