Protein
   32
    1ACE   HH31    1  13.835   9.195   7.777  0.6282 -1.1939  1.1202
    1ACE    CH3    2  13.931   9.247   7.772  0.0321 -0.1443 -0.4991
    1ACE   HH32    3  13.910   9.346   7.813  1.9089  0.5753 -1.1704
    1ACE   HH33    4  13.975   9.253   7.673 -0.2408  1.2867 -0.5401
    1ACE      C    5  14.025   9.175   7.868 -0.0874 -0.6548  0.1218
    1ACE      O    6  14.005   9.184   7.990 -0.0012 -0.1679  0.6068
    2ALA      N    7  14.125   9.106   7.820  0.3519 -1.6665 -0.5544
    2ALA      H    8  14.152   9.111   7.723 -0.2612  0.5035 -0.6503
    2ALA     CA    9  14.192   9.010   7.900 -0.2135  0.2728  0.1552
    2ALA     HA   10  14.133   8.959   7.976 -0.3157  0.5233  0.2492
    2ALA     CB   11  14.240   8.896   7.803  0.0784  0.2536  0.2356
    2ALA    HB1   12  14.334   8.918   7.752 -0.0222  1.8118  0.6660
    2ALA    HB2   13  14.258   8.801   7.853 -1.9591 -0.3358 -0.0617
    2ALA    HB3   14  14.162   8.889   7.728 -0.5099  2.5955  0.5706
    2ALA      C   15  14.312   9.073   7.976 -0.1405 -0.5822 -0.6067
    2ALA      O   16  14.426   9.065   7.934 -0.2407 -0.0883 -0.0804
    3ALA      N   17  14.289   9.134   8.096  0.6410 -0.4644  0.3739
    3ALA      H   18  14.194   9.156   8.124  1.1036  1.6149  0.4429
    3ALA     CA   19  14.391   9.191   8.186  0.3625 -0.0642  0.4379
    3ALA     HA   20  14.464   9.110   8.196  1.6594  0.6114 -2.4073
    3ALA     CB   21  14.470   9.307   8.110  0.0267  0.0628  0.3133
    3ALA    HB1   22  14.557   9.354   8.155  0.2495  1.3226 -1.2847
    3ALA    HB2   23  14.512   9.274   8.015  2.0927  0.8708  0.9040
    3ALA    HB3   24  14.403   9.393   8.098  1.8037  1.4965  0.2250
    3ALA      C   25  14.335   9.247   8.317  0.3579  0.7429 -0.4164
    3ALA      O   26  14.403   9.318   8.386 -0.4945 -0.2657  0.3311
    4NME      N   27  14.215   9.196   8.360 -0.3949  0.3235 -0.5141
    4NME      H   28  14.174   9.125   8.301  1.9974 -0.1877 -1.7088
    4NME    CH3   29  14.153   9.204   8.495  0.1450  0.1087  1.2923
    4NME   HH31   30  14.233   9.223   8.567  1.6087  0.5734 -0.3685
    4NME   HH32   31  14.066   9.268   8.483 -0.5003 -0.6664  1.6836
    4NME   HH33   32  14.122   9.099   8.498  2.3020 -1.0993 -4.7924
  20.99041  20.99041  20.99041
