Protein
   60
    1ACE   HH31    1  22.853  20.441  20.531 -0.3556  0.4742 -1.4712
    1ACE    CH3    2  22.763  20.387  20.560 -0.5010  1.3644 -0.1766
    1ACE   HH32    3  22.672  20.446  20.567 -1.1485  0.2148  1.4475
    1ACE   HH33    4  22.750  20.311  20.483 -2.6083  2.5757 -1.1214
    1ACE      C    5  22.758  20.338  20.699  0.0898 -0.3942 -0.1625
    1ACE      O    6  22.723  20.220  20.709 -0.1707 -0.4174 -0.6065
    2TRP      N    7  22.778  20.418  20.804 -0.8334 -0.8330  0.0356
    2TRP      H    8  22.753  20.391  20.898  0.3000 -0.6701  0.3950
    2TRP     CA    9  22.876  20.527  20.809  0.1687 -1.1310 -0.1661
    2TRP     HA   10  22.949  20.510  20.731 -1.9154  1.5069 -2.9175
    2TRP     CB   11  22.811  20.672  20.788  0.5694  0.8144  0.3475
    2TRP    HB1   12  22.761  20.701  20.880  0.0438  0.7622  0.0900
    2TRP    HB2   13  22.744  20.664  20.702 -0.1821 -0.4915  1.0207
    2TRP     CG   14  22.908  20.782  20.747 -0.1042 -0.5295 -0.6798
    2TRP    CD1   15  22.955  20.880  20.821  0.0064 -0.3274  0.0506
    2TRP    HD1   16  22.926  20.902  20.923 -1.5767 -0.8824 -0.2629
    2TRP    NE1   17  23.040  20.960  20.753  0.0007 -0.1439  0.5343
    2TRP    HE1   18  23.085  21.041  20.793 -0.2826  1.4548 -2.1175
    2TRP    CE2   19  23.049  20.920  20.624  0.1952 -0.8295  0.1645
    2TRP    CZ2   20  23.111  20.976  20.516 -0.5289  0.1077 -0.6110
    2TRP    HZ2   21  23.178  21.059  20.533  0.7453 -1.3291  1.9907
    2TRP    CH2   22  23.099  20.921  20.393  0.1089  0.0852  0.0375
    2TRP    HH2   23  23.150  20.972  20.313  1.2524 -2.7897 -1.2189
    2TRP    CZ3   24  23.016  20.807  20.378 -0.0892  0.6970 -0.1797
    2TRP    HZ3   25  23.011  20.762  20.280  0.4772  0.1546  0.0325
    2TRP    CE3   26  22.950  20.747  20.485 -0.0277  0.1233  0.0050
    2TRP    HE3   27  22.880  20.666  20.477 -0.4572  0.1543  2.6418
    2TRP    CD2   28  22.963  20.804  20.615 -0.1185  0.5347 -0.2409
    2TRP      C   29  22.938  20.520  20.953 -0.4477  0.4921  0.3595
    2TRP      O   30  22.871  20.485  21.051  0.1213 -0.5501  0.6349
    3TRP      N   31  23.066  20.556  20.976  0.3803 -0.2126 -0.4851
    3TRP      H   32  23.087  20.573  21.073 -0.8726 -0.6102 -0.1216
    3TRP     CA   33  23.177  20.595  20.889  0.5309  0.5363 -0.0659
    3TRP     HA   34  23.136  20.621  20.791 -1.5176 -0.0950  0.5802
    3TRP     CB   35  23.271  20.472  20.872  0.4197 -0.5349  0.9181
    3TRP    HB1   36  23.344  20.499  20.796 -0.7137  0.2366  0.0691
    3TRP    HB2   37  23.317  20.454  20.970 -1.0929 -0.4052  1.6826
    3TRP     CG   38  23.198  20.348  20.828 -0.0980  0.5919 -0.5380
    3TRP    CD1   39  23.162  20.238  20.896  0.2741 -0.0246  0.2839
    3TRP    HD1   40  23.158  20.237  21.004 -1.9132 -0.2726  0.2650
    3TRP    NE1   41  23.110  20.142  20.814  0.0507 -0.2066  0.0369
    3TRP    HE1   42  23.075  20.055  20.852  0.5989  0.2438  1.7195
    3TRP    CE2   43  23.094  20.189  20.687 -0.5826 -0.4862 -0.0036
    3TRP    CZ2   44  23.040  20.132  20.571 -0.6774 -0.5186  0.1046
    3TRP    HZ2   45  23.000  20.031  20.577 -1.5807 -0.1441  0.9438
    3TRP    CH2   46  23.047  20.198  20.452 -0.1943  0.3055 -1.0279
    3TRP    HH2   47  23.013  20.143  20.365 -1.9042  0.2238 -0.3426
    3TRP    CZ3   48  23.105  20.328  20.453 -0.0246 -0.8878  0.3323
    3TRP    HZ3   49  23.127  20.381  20.361 -1.4367  1.4101  1.2383
    3TRP    CE3   50  23.155  20.390  20.568  0.6063  0.0620  0.3904
    3TRP    HE3   51  23.195  20.489  20.560 -2.4865  1.4501  0.5705
    3TRP    CD2   52  23.156  20.319  20.686  0.2972  0.4333 -0.3078
    3TRP      C   53  23.258  20.716  20.935 -0.0921 -0.0512 -0.2333
    3TRP      O   54  23.259  20.746  21.054  0.1816 -0.4666  0.6684
    4NME      N   55  23.332  20.769  20.842  0.3016  0.4628 -0.4399
    4NME      H   56  23.330  20.725  20.752 -0.5536 -1.6777  0.5754
    4NME    CH3   57  23.415  20.890  20.866 -0.3644 -0.2692  0.0472
    4NME   HH31   58  23.492  20.891  20.789  0.0663  1.5480  0.4560
    4NME   HH32   59  23.345  20.974  20.863  0.9465  0.9762  2.2874
    4NME   HH33   60  23.470  20.881  20.959 -0.2760  0.3600  0.0582
  41.12396  41.12396  41.12396
