Protein
   22
    1ACE   HH31    1   2.131   5.355   4.293  0.6913 -1.6119  1.6447
    1ACE    CH3    2   2.026   5.342   4.321 -0.1046 -0.2346 -0.5389
    1ACE   HH32    3   1.982   5.441   4.316  0.0939 -0.0660  0.8058
    1ACE   HH33    4   2.011   5.314   4.425  2.1658 -1.5240 -0.4989
    1ACE      C    5   1.959   5.246   4.224  0.1975  0.1312  0.1984
    1ACE      O    6   1.887   5.155   4.267  0.0832 -0.0756 -0.4370
    2ALA      N    7   1.998   5.263   4.097  0.7297 -0.3680 -0.0875
    2ALA      H    8   2.069   5.335   4.089  1.8684 -1.3516  0.6891
    2ALA     CA    9   1.975   5.174   3.986 -0.0704  0.4477  0.2486
    2ALA     HA   10   1.886   5.117   4.012  1.3254 -1.7197  0.5204
    2ALA     CB   11   1.959   5.241   3.849 -0.2648 -0.1547  0.0451
    2ALA    HB1   12   1.904   5.176   3.780 -1.9230 -2.2333  3.0782
    2ALA    HB2   13   1.908   5.337   3.849 -0.5187 -0.2756 -0.7819
    2ALA    HB3   14   2.057   5.271   3.812 -0.2596 -0.6854 -0.4012
    2ALA      C   15   2.077   5.057   3.983 -0.2061 -0.8478 -0.1415
    2ALA      O   16   2.051   4.949   4.035  0.2613 -0.6840  0.0383
    3NME      N   17   2.197   5.080   3.927  0.1435  0.2350 -0.0252
    3NME      H   18   2.225   5.171   3.895  3.9985  0.0257  2.1768
    3NME    CH3   19   2.302   4.985   3.919  0.0123  0.2330  1.1101
    3NME   HH31   20   2.361   4.982   4.010  2.0569 -0.7688 -0.1768
    3NME   HH32   21   2.272   4.887   3.882 -0.1452  1.0433 -1.0426
    3NME   HH33   22   2.359   5.025   3.834 -1.4164  0.6565  0.3179
  10.72160  10.72160  10.72160
