Protein
   42
    1ACE   HH31    1  11.633   6.268   7.787  0.6685 -0.9268  0.7459
    1ACE    CH3    2  11.552   6.272   7.859 -0.2915 -0.0359 -0.3621
    1ACE   HH32    3  11.573   6.336   7.944 -0.3063 -1.1231  0.4824
    1ACE   HH33    4  11.537   6.168   7.889 -0.8540  1.2262  4.6329
    1ACE      C    5  11.420   6.328   7.804 -0.3234  0.0859 -0.6313
    1ACE      O    6  11.397   6.451   7.817 -0.0553 -0.0500 -0.1106
    2ALA      N    7  11.337   6.247   7.737  0.0614 -0.2988  0.0410
    2ALA      H    8  11.358   6.148   7.738 -2.9551 -1.0655 -0.2500
    2ALA     CA    9  11.214   6.288   7.672 -0.2803 -0.4622  1.2034
    2ALA     HA   10  11.190   6.383   7.719  1.6151  0.5037  0.2825
    2ALA     CB   11  11.236   6.302   7.523 -0.2351 -0.4495  0.2394
    2ALA    HB1   12  11.278   6.217   7.470  2.2335  0.6001  0.3794
    2ALA    HB2   13  11.149   6.328   7.465  2.0200  1.1907 -2.6593
    2ALA    HB3   14  11.297   6.390   7.503 -2.7164  1.3089 -0.1412
    2ALA      C   15  11.083   6.205   7.703 -0.1635 -0.1115 -0.7125
    2ALA      O   16  11.009   6.170   7.616 -0.2122  0.1281  0.0511
    3ALA      N   17  11.055   6.161   7.828  0.0004 -0.1093  0.4002
    3ALA      H   18  10.967   6.112   7.822 -1.2271  2.0462 -0.8152
    3ALA     CA   19  11.098   6.228   7.954 -0.1830  0.3600  0.2195
    3ALA     HA   20  11.127   6.331   7.935  0.7656  0.4166  1.8306
    3ALA     CB   21  10.972   6.243   8.047 -1.1241  0.2006 -0.2222
    3ALA    HB1   22  11.011   6.275   8.144 -0.8067  0.1295 -0.3234
    3ALA    HB2   23  10.907   6.315   7.997 -1.4043  1.0755  1.3172
    3ALA    HB3   24  10.922   6.147   8.057 -1.1314  0.4103  3.4240
    3ALA      C   25  11.218   6.144   8.015  0.0333  0.0220  0.7656
    3ALA      O   26  11.278   6.057   7.956 -0.1468  0.6538 -0.4491
    4ALA      N   27  11.247   6.168   8.141  0.4770 -0.0439  0.0991
    4ALA      H   28  11.184   6.224   8.198 -0.4344  0.5570 -1.4409
    4ALA     CA   29  11.340   6.092   8.222 -0.5639 -0.2213  0.3533
    4ALA     HA   30  11.369   6.001   8.170  0.3281  1.0459 -1.4991
    4ALA     CB   31  11.478   6.164   8.259  0.1225  0.3867  0.7700
    4ALA    HB1   32  11.553   6.102   8.308 -0.1895 -2.1380 -1.7153
    4ALA    HB2   33  11.522   6.195   8.164  0.7118 -1.2048  0.5039
    4ALA    HB3   34  11.454   6.238   8.336 -1.1350  1.0662 -0.2276
    4ALA      C   35  11.267   6.049   8.345 -0.2286  0.6518  0.5170
    4ALA      O   36  11.183   6.130   8.396 -0.3256  0.1186  0.1152
    5NME      N   37  11.293   5.922   8.384 -0.1824  0.1694  0.4594
    5NME      H   38  11.350   5.869   8.320 -1.9477  1.7536 -2.6691
    5NME    CH3   39  11.230   5.854   8.493  0.7310  0.4212 -0.4711
    5NME   HH31   40  11.225   5.912   8.585 -3.0369  0.0744 -0.3166
    5NME   HH32   41  11.126   5.843   8.463  0.8840 -0.2329 -0.7704
    5NME   HH33   42  11.274   5.756   8.514  0.9898  0.7186  0.4209
  20.91516  20.91516  20.91516
