Protein
   42
    1ACE   HH31    1  10.568   7.479   6.075  0.1494 -0.1588 -0.1144
    1ACE    CH3    2  10.593   7.444   5.974  0.1892 -0.6170  0.0503
    1ACE   HH32    3  10.537   7.352   5.954  0.2548 -0.2912 -1.8207
    1ACE   HH33    4  10.697   7.414   5.961  0.1930 -0.3152 -0.6393
    1ACE      C    5  10.565   7.554   5.867 -1.0629  0.7250  0.0202
    1ACE      O    6  10.631   7.658   5.868  0.7594  0.7598 -1.0985
    2ALA      N    7  10.468   7.533   5.780  0.4627  0.8289 -0.3877
    2ALA      H    8  10.411   7.450   5.787 -0.1060  1.2940  0.5573
    2ALA     CA    9  10.418   7.627   5.671 -0.4784 -0.0967  0.7241
    2ALA     HA   10  10.362   7.564   5.603  2.0760 -2.2850  0.4894
    2ALA     CB   11  10.336   7.740   5.731 -0.7509  0.4675  0.8159
    2ALA    HB1   12  10.317   7.809   5.649  1.6986  0.8573  0.5070
    2ALA    HB2   13  10.243   7.695   5.767 -0.5055  0.4954  1.5053
    2ALA    HB3   14  10.390   7.784   5.815  1.3537 -0.0599 -0.1926
    2ALA      C   15  10.531   7.679   5.584 -0.4494  0.4643  0.3626
    2ALA      O   16  10.552   7.629   5.468  0.3068 -0.1541  0.0068
    3ALA      N   17  10.603   7.786   5.627  0.7814  0.9014 -0.3891
    3ALA      H   18  10.577   7.814   5.721 -0.9892  0.8447 -0.8211
    3ALA     CA   19  10.712   7.856   5.561 -0.3709  0.1344  0.5672
    3ALA     HA   20  10.668   7.955   5.552  0.3867  0.7830  2.9993
    3ALA     CB   21  10.837   7.860   5.657 -0.5362  0.2317  0.3441
    3ALA    HB1   22  10.917   7.925   5.621  0.0375 -0.4689  0.3503
    3ALA    HB2   23  10.806   7.899   5.754  0.8861  1.2052  0.4290
    3ALA    HB3   24  10.881   7.762   5.672 -0.8179 -0.0965 -0.8658
    3ALA      C   25  10.756   7.819   5.414 -0.3080  0.1978 -0.9950
    3ALA      O   26  10.742   7.907   5.324  0.4116  0.1209 -0.0826
    4ALA      N   27  10.807   7.695   5.388  0.4279 -0.1517  0.1191
    4ALA      H   28  10.813   7.631   5.466 -0.4161  0.5917  0.8439
    4ALA     CA   29  10.869   7.663   5.262 -0.3899  0.2454 -0.0999
    4ALA     HA   30  10.876   7.747   5.193  0.9382  1.0541  0.9776
    4ALA     CB   31  11.009   7.630   5.305  0.7724  0.2299  0.5880
    4ALA    HB1   32  11.005   7.537   5.363 -0.9248  0.2059  0.5023
    4ALA    HB2   33  11.082   7.615   5.225  2.2020 -1.8157  2.1146
    4ALA    HB3   34  11.032   7.718   5.365 -0.9599 -0.2372  2.0214
    4ALA      C   35  10.808   7.550   5.186  0.4759  1.1325  0.0316
    4ALA      O   36  10.879   7.474   5.122 -0.0729  0.1141 -0.4413
    5NME      N   37  10.681   7.531   5.207  0.1788  0.1108  0.2794
    5NME      H   38  10.641   7.594   5.275  1.6821  1.3925  0.0456
    5NME    CH3   39  10.595   7.444   5.121 -0.0379  0.9554 -0.7102
    5NME   HH31   40  10.654   7.360   5.084  0.3610  1.4406 -1.1769
    5NME   HH32   41  10.508   7.399   5.170 -0.0596 -1.0574 -2.4553
    5NME   HH33   42  10.557   7.509   5.042 -1.3160  0.2402 -0.7245
  20.91516  20.91516  20.91516
