Protein
   42
    1ACE   HH31    1  10.653  12.648  11.413 -0.9981 -2.7781  1.9700
    1ACE    CH3    2  10.680  12.694  11.508  0.0715  0.2342  0.3145
    1ACE   HH32    3  10.761  12.627  11.537 -2.0582 -2.3147  0.6211
    1ACE   HH33    4  10.591  12.706  11.570 -1.1636 -1.6609 -0.9784
    1ACE      C    5  10.739  12.832  11.486 -0.3756 -0.0767 -1.2812
    1ACE      O    6  10.759  12.880  11.373 -0.0001 -0.1158 -1.0296
    2ALA      N    7  10.773  12.894  11.602  0.0588 -0.2720 -0.5354
    2ALA      H    8  10.770  12.848  11.691  3.3791  3.8657  2.0889
    2ALA     CA    9  10.823  13.035  11.620 -0.3093 -0.0796  0.3612
    2ALA     HA   10  10.741  13.102  11.642 -0.7407  1.1321 -3.9990
    2ALA     CB   11  10.920  13.046  11.744 -0.1451 -0.0540 -0.2028
    2ALA    HB1   12  10.951  13.150  11.756  1.6013 -0.4132 -1.1524
    2ALA    HB2   13  10.864  13.009  11.830  0.2186  0.2567  0.1710
    2ALA    HB3   14  11.010  12.985  11.731 -0.6652 -0.5246 -1.9245
    2ALA      C   15  10.886  13.102  11.500 -0.2386  0.3325  0.6865
    2ALA      O   16  10.853  13.215  11.472 -0.3812  0.0684 -0.4503
    3ALA      N   17  10.987  13.038  11.433  0.0123  0.0946  0.6494
    3ALA      H   18  11.015  12.944  11.457  1.2523  0.1814 -0.3337
    3ALA     CA   19  11.060  13.096  11.319  0.4484 -0.4812  0.6440
    3ALA     HA   20  11.113  13.185  11.354  1.2267 -0.6792  0.0276
    3ALA     CB   21  11.157  12.990  11.273 -0.0602 -0.8510  0.2890
    3ALA    HB1   22  11.227  12.963  11.353 -1.8026  2.4825  3.2358
    3ALA    HB2   23  11.105  12.899  11.242  1.7236 -2.4354  1.6634
    3ALA    HB3   24  11.213  13.039  11.194 -1.6673  0.8180  0.1223
    3ALA      C   25  10.973  13.151  11.205  0.2746  1.1188 -0.2467
    3ALA      O   26  11.011  13.233  11.128 -0.3892 -0.4405 -0.1420
    4ALA      N   27  10.849  13.104  11.199  0.4468  0.1636  0.0676
    4ALA      H   28  10.817  13.035  11.266 -4.3634 -0.0132 -2.0535
    4ALA     CA   29  10.754  13.157  11.100 -0.5215  0.1643 -0.4523
    4ALA     HA   30  10.804  13.184  11.006 -1.3177 -0.2416 -1.0115
    4ALA     CB   31  10.648  13.053  11.062  0.2185  0.0540  0.8577
    4ALA    HB1   32  10.596  13.078  10.970  1.8931 -1.3133 -0.5354
    4ALA    HB2   33  10.707  12.962  11.055  2.1858  1.1708  2.0088
    4ALA    HB3   34  10.579  13.024  11.141 -0.4889 -0.6448  0.0089
    4ALA      C   35  10.686  13.287  11.138  0.4595  0.5991 -0.3588
    4ALA      O   36  10.613  13.344  11.056 -0.6024 -0.0153 -0.6645
    5NME      N   37  10.708  13.351  11.255  0.4857  0.0572 -0.7435
    5NME      H   38  10.758  13.296  11.323 -1.0351 -0.4029  0.0455
    5NME    CH3   39  10.672  13.487  11.300 -0.1904 -0.1459 -0.2334
    5NME   HH31   40  10.643  13.482  11.405  1.0271 -0.5608  0.0942
    5NME   HH32   41  10.754  13.554  11.274  1.9450 -2.2191  0.7542
    5NME   HH33   42  10.591  13.511  11.231  0.5518  1.7323 -0.5201
  20.91516  20.91516  20.91516
