Protein
   42
    1ACE   HH31    1  13.859  11.523  10.783 -0.1080  0.3794 -1.1645
    1ACE    CH3    2  13.954  11.488  10.824 -0.3259  0.1011 -0.8902
    1ACE   HH32    3  14.029  11.511  10.748 -0.1074 -0.0951 -0.7349
    1ACE   HH33    4  13.955  11.380  10.838  1.8043  0.3510  1.4343
    1ACE      C    5  13.976  11.551  10.957 -0.0661 -0.9222  0.0611
    1ACE      O    6  13.946  11.488  11.056 -0.3859 -0.0133 -0.7085
    2ALA      N    7  14.010  11.680  10.967  0.3312 -0.8243 -0.4775
    2ALA      H    8  14.043  11.726  10.883 -0.7873  2.3860  0.6854
    2ALA     CA    9  14.003  11.765  11.083  0.3692  0.7267  0.1289
    2ALA     HA   10  14.054  11.855  11.050  2.1099  0.2708  1.4199
    2ALA     CB   11  13.856  11.815  11.106 -0.1341 -0.2561  1.1451
    2ALA    HB1   12  13.855  11.888  11.187 -0.6207  1.8720 -0.6970
    2ALA    HB2   13  13.812  11.847  11.012  1.3680 -0.9571  0.1589
    2ALA    HB3   14  13.791  11.735  11.141  1.2948 -1.6674  0.7172
    2ALA      C   15  14.081  11.709  11.202 -0.0620 -0.1813 -0.0149
    2ALA      O   16  14.193  11.751  11.227  0.3227  0.1545 -0.5573
    3ALA      N   17  14.024  11.616  11.279 -0.0249  0.1938  0.1707
    3ALA      H   18  13.941  11.572  11.240  0.7110 -1.9850  0.9029
    3ALA     CA   19  14.101  11.555  11.387  0.1273  1.0161 -0.4540
    3ALA     HA   20  14.168  11.622  11.440  1.7912  0.5092 -1.8253
    3ALA     CB   21  14.007  11.482  11.483 -0.7043  0.1364 -0.1456
    3ALA    HB1   22  14.063  11.402  11.531 -0.7323 -0.0354 -0.3994
    3ALA    HB2   23  13.973  11.556  11.556 -0.2293 -0.3449  0.5872
    3ALA    HB3   24  13.923  11.441  11.429 -0.2888 -1.5655  0.4465
    3ALA      C   25  14.186  11.443  11.321  0.0570 -0.2502  0.5518
    3ALA      O   26  14.286  11.399  11.372  0.7721 -0.1406  0.0130
    4ALA      N   27  14.157  11.395  11.199 -0.0289 -0.5392 -0.0122
    4ALA      H   28  14.078  11.442  11.156  0.1755 -1.4363 -1.4498
    4ALA     CA   29  14.257  11.324  11.121 -0.5009 -0.1920  0.0403
    4ALA     HA   30  14.331  11.272  11.182 -0.5718 -1.2246 -0.7316
    4ALA     CB   31  14.179  11.222  11.040  0.2565 -0.6262  0.2307
    4ALA    HB1   32  14.105  11.263  10.972 -1.0744 -0.9280  1.4257
    4ALA    HB2   33  14.244  11.162  10.976 -1.4221 -0.2132 -1.9640
    4ALA    HB3   34  14.118  11.155  11.102 -2.4684 -0.2585 -1.8465
    4ALA      C   35  14.332  11.420  11.036  0.2814 -0.6586  0.4392
    4ALA      O   36  14.309  11.419  10.913 -0.4828 -0.3790 -0.5090
    5NME      N   37  14.416  11.509  11.093 -0.7848  0.7204 -0.4002
    5NME      H   38  14.440  11.492  11.190 -1.4813  0.4017 -0.2819
    5NME    CH3   39  14.490  11.608  11.030  0.0173 -0.2765 -0.0980
    5NME   HH31   40  14.595  11.605  11.061  0.2353 -0.7171 -0.8547
    5NME   HH32   41  14.493  11.605  10.921 -1.2404  1.2513 -0.2182
    5NME   HH33   42  14.449  11.705  11.060  0.9376 -0.1403  0.7773
  20.91516  20.91516  20.91516
