Protein
   42
    1ACE   HH31    1  13.864   7.423   4.594  1.1358  0.6363 -0.9404
    1ACE    CH3    2  13.800   7.465   4.517 -0.5797 -0.0139  0.0719
    1ACE   HH32    3  13.860   7.500   4.432 -1.2461  0.8045 -0.0735
    1ACE   HH33    4  13.747   7.553   4.551 -2.9593 -0.7167 -1.5939
    1ACE      C    5  13.690   7.371   4.474 -0.3465 -0.0689  0.0712
    1ACE      O    6  13.681   7.346   4.350 -0.2271  0.0078 -0.1855
    2ALA      N    7  13.618   7.313   4.572  0.3083  0.1426  0.6646
    2ALA      H    8  13.634   7.333   4.670 -2.0480  0.6857  1.0014
    2ALA     CA    9  13.518   7.208   4.550  0.0459  0.4833 -1.3178
    2ALA     HA   10  13.572   7.136   4.489  1.1072  0.5663 -0.4932
    2ALA     CB   11  13.483   7.143   4.690 -0.2537 -0.1530 -0.0828
    2ALA    HB1   12  13.397   7.076   4.693  1.1886 -2.0645  0.8370
    2ALA    HB2   13  13.565   7.084   4.732 -1.4279 -0.5982  1.6711
    2ALA    HB3   14  13.464   7.222   4.762  1.6398  1.3806 -1.1775
    2ALA      C   15  13.391   7.257   4.483  0.0774 -0.3441  0.4823
    2ALA      O   16  13.284   7.191   4.485  0.6671  0.1380 -0.1698
    3ALA      N   17  13.402   7.369   4.413 -0.1903 -0.3597 -0.0247
    3ALA      H   18  13.488   7.422   4.419 -0.8007  0.5268  1.8500
    3ALA     CA   19  13.298   7.438   4.335  0.1089  0.1075  0.1460
    3ALA     HA   20  13.348   7.523   4.289 -1.0566  0.5672 -0.3109
    3ALA     CB   21  13.275   7.349   4.220 -0.5849 -0.2628  0.5094
    3ALA    HB1   22  13.211   7.405   4.152 -1.1588 -1.4066  0.0835
    3ALA    HB2   23  13.366   7.328   4.164 -1.6230  0.3863 -1.4971
    3ALA    HB3   24  13.218   7.259   4.245 -2.9289  0.7351 -0.9293
    3ALA      C   25  13.168   7.491   4.409  0.5976 -1.3768  0.1157
    3ALA      O   26  13.106   7.581   4.358  0.8503  0.1665 -0.1176
    4ALA      N   27  13.141   7.437   4.526  0.0912  0.2142 -0.1043
    4ALA      H   28  13.190   7.351   4.546  0.0535  0.3901  0.8005
    4ALA     CA   29  13.026   7.471   4.618 -0.1326 -0.3381  0.1841
    4ALA     HA   30  13.002   7.388   4.684 -0.6454  0.1018  0.5632
    4ALA     CB   31  13.071   7.576   4.717  0.3805 -0.0613  0.4027
    4ALA    HB1   32  13.077   7.671   4.665 -3.8169  0.3849  0.3493
    4ALA    HB2   33  12.985   7.580   4.785 -1.7471 -0.1674 -2.1027
    4ALA    HB3   34  13.164   7.552   4.768  0.4090  1.6322  1.2325
    4ALA      C   35  12.883   7.493   4.553 -0.6491  0.0781  0.5209
    4ALA      O   36  12.804   7.563   4.620  0.0073  0.3986  0.1901
    5NME      N   37  12.858   7.442   4.434 -0.2124  0.1484  0.4753
    5NME      H   38  12.939   7.405   4.386 -0.3528  0.3957  0.0274
    5NME    CH3   39  12.729   7.452   4.371  0.3546  0.3530  0.0696
    5NME   HH31   40  12.726   7.550   4.324  1.4154  1.6851  2.5796
    5NME   HH32   41  12.719   7.373   4.296  0.7624  1.6921 -1.4641
    5NME   HH33   42  12.645   7.450   4.441  0.6277 -1.3737  0.4069
  20.91516  20.91516  20.91516
