Protein
   42
    1ACE   HH31    1  11.827   9.199  12.885  0.7641  1.0338 -0.5224
    1ACE    CH3    2  11.803   9.113  12.823 -0.2818  0.4550  0.6514
    1ACE   HH32    3  11.893   9.069  12.780  0.1685  0.1235  1.8915
    1ACE   HH33    4  11.735   9.150  12.746  0.6981 -0.1181 -0.5242
    1ACE      C    5  11.732   8.996  12.898 -0.4228  0.7472 -0.2191
    1ACE      O    6  11.637   8.944  12.840  0.1306  0.3068 -0.7131
    2ALA      N    7  11.782   8.977  13.020 -0.1695 -0.2530  0.0731
    2ALA      H    8  11.861   9.033  13.046 -0.0817 -0.7165  0.8129
    2ALA     CA    9  11.723   8.911  13.131  0.1945  0.0737 -0.7872
    2ALA     HA   10  11.734   8.988  13.208 -1.8774 -0.1922 -0.1377
    2ALA     CB   11  11.568   8.887  13.134  0.2186 -0.1574 -0.1204
    2ALA    HB1   12  11.553   8.800  13.069 -0.1736 -0.2568  0.1038
    2ALA    HB2   13  11.530   8.858  13.232  1.9808 -0.3230  0.5590
    2ALA    HB3   14  11.515   8.965  13.080  4.0260  1.3976 -1.9756
    2ALA      C   15  11.795   8.778  13.160  0.1004 -0.9971 -0.1024
    2ALA      O   16  11.844   8.755  13.273  0.2292  0.4773  0.3888
    3ALA      N   17  11.807   8.692  13.057 -0.2528 -0.0202 -0.1003
    3ALA      H   18  11.780   8.730  12.968  0.4375  0.1839 -0.2329
    3ALA     CA   19  11.858   8.556  13.046  0.5311  0.4186  0.5837
    3ALA     HA   20  11.949   8.558  13.105  0.8509 -1.4308  0.2201
    3ALA     CB   21  11.752   8.465  13.126 -0.2120  0.2689  0.1298
    3ALA    HB1   22  11.657   8.474  13.073 -0.0395  0.4312 -0.1633
    3ALA    HB2   23  11.787   8.363  13.139 -3.2427 -0.8613  0.0514
    3ALA    HB3   24  11.734   8.506  13.225 -1.7545  2.3139 -0.9218
    3ALA      C   25  11.873   8.512  12.897 -0.1225 -0.0727 -0.4479
    3ALA      O   26  11.827   8.581  12.813  0.7449  0.9202  0.1847
    4ALA      N   27  11.936   8.395  12.880  0.1739 -0.0404 -0.4925
    4ALA      H   28  11.961   8.350  12.967 -0.4783 -0.2410 -0.3986
    4ALA     CA   29  11.996   8.335  12.759  0.0815 -0.0243  0.1118
    4ALA     HA   30  12.064   8.260  12.800 -0.1212  0.8033  2.0614
    4ALA     CB   31  11.887   8.251  12.685  0.2249 -0.5456 -0.1118
    4ALA    HB1   32  11.950   8.198  12.613  1.2294 -1.4993  1.4181
    4ALA    HB2   33  11.839   8.187  12.759  1.6931 -0.5286  0.8720
    4ALA    HB3   34  11.826   8.327  12.636 -0.0273  0.2602  1.4035
    4ALA      C   35  12.085   8.423  12.664  0.2032  0.4297  0.3157
    4ALA      O   36  12.194   8.380  12.623 -0.4139  0.4608  0.1396
    5NME      N   37  12.049   8.549  12.640 -0.5967 -0.5955  0.4555
    5NME      H   38  11.964   8.584  12.681  0.1817 -0.8920  2.4908
    5NME    CH3   39  12.130   8.638  12.555 -0.6004  0.4266  0.0630
    5NME   HH31   40  12.163   8.589  12.464  0.7791 -1.1379  1.3475
    5NME   HH32   41  12.062   8.719  12.527 -0.4019  0.4256 -0.4289
    5NME   HH33   42  12.211   8.685  12.610  0.5203 -1.6591  0.2926
  20.91516  20.91516  20.91516
