Protein
   32
    1ACE   HH31    1  10.139  11.058  11.290 -0.3677 -1.4427 -0.9336
    1ACE    CH3    2  10.154  11.005  11.384  0.0156 -0.4352 -0.4077
    1ACE   HH32    3  10.192  10.904  11.367  3.2312  0.6016  0.1169
    1ACE   HH33    4  10.053  10.995  11.425  0.7694 -0.5138  1.5198
    1ACE      C    5  10.241  11.086  11.475 -0.1175 -0.4043 -0.5924
    1ACE      O    6  10.348  11.044  11.506 -0.3376  0.0496  0.0928
    2ALA      N    7  10.198  11.209  11.510 -0.3331 -0.2425 -0.3448
    2ALA      H    8  10.104  11.241  11.492  0.4393  1.3752 -1.6743
    2ALA     CA    9  10.270  11.298  11.606 -0.3241  0.0376 -0.9899
    2ALA     HA   10  10.351  11.242  11.654 -0.8238  1.4241  1.7154
    2ALA     CB   11  10.347  11.416  11.549 -0.0568  0.3234 -0.3860
    2ALA    HB1   12  10.374  11.394  11.446  0.2089 -2.7317  0.2476
    2ALA    HB2   13  10.280  11.502  11.541  1.1999  1.2875 -0.7814
    2ALA    HB3   14  10.435  11.436  11.610  0.0556  1.1138 -0.7960
    2ALA      C   15  10.180  11.329  11.726 -0.5456 -0.1111 -0.0090
    2ALA      O   16  10.058  11.312  11.725  0.1743  0.1292 -0.0428
    3ALA      N   17  10.238  11.373  11.840 -0.0546  0.3724 -0.0906
    3ALA      H   18  10.335  11.392  11.818  0.6392 -0.4041  2.0301
    3ALA     CA   19  10.185  11.385  11.975 -0.2895  0.9038 -0.2921
    3ALA     HA   20  10.094  11.445  11.977 -0.3393  0.8147  0.6933
    3ALA     CB   21  10.142  11.243  12.007 -0.0534 -0.4668 -0.2638
    3ALA    HB1   22  10.104  11.241  12.109  1.1820 -3.9549  0.2860
    3ALA    HB2   23  10.064  11.216  11.935 -1.0626 -1.3552  1.1232
    3ALA    HB3   24  10.232  11.181  12.012  0.6099  0.5010  0.3298
    3ALA      C   25  10.293  11.431  12.067  0.5901  0.2547 -0.0465
    3ALA      O   26  10.407  11.439  12.033 -0.1639  0.1898 -0.0427
    4NME      N   27  10.254  11.464  12.191  0.3530  0.0565  0.9837
    4NME      H   28  10.157  11.442  12.213 -0.1385  1.1610  0.0106
    4NME    CH3   29  10.327  11.541  12.295  0.0796 -0.1199  0.1569
    4NME   HH31   30  10.420  11.567  12.244  0.1407  0.0032  0.3331
    4NME   HH32   31  10.275  11.632  12.324  1.0445  0.4712  0.0904
    4NME   HH33   32  10.338  11.484  12.387 -0.0370  1.1132  0.9638
  20.99041  20.99041  20.99041
