Protein
   32
    1ACE   HH31    1   8.079   7.755   7.230  0.7859  1.0090 -0.1153
    1ACE    CH3    2   8.145   7.713   7.306  0.7061  0.0421 -0.5714
    1ACE   HH32    3   8.248   7.746   7.290  1.1259 -0.1135  1.5807
    1ACE   HH33    4   8.140   7.605   7.294  1.4723 -0.0267 -0.3638
    1ACE      C    5   8.096   7.750   7.449 -0.4061  0.6880  0.3397
    1ACE      O    6   8.141   7.851   7.499 -0.5610 -0.2715 -0.3589
    2ALA      N    7   8.010   7.663   7.506  0.1378 -0.5552  0.7107
    2ALA      H    8   7.991   7.574   7.461 -0.7545 -0.5597  1.0931
    2ALA     CA    9   7.954   7.679   7.642 -0.6223 -0.0077  0.6531
    2ALA     HA   10   7.864   7.619   7.636 -1.1996  0.8562  0.2967
    2ALA     CB   11   8.044   7.617   7.751  0.3600  0.0179  0.6500
    2ALA    HB1   12   8.085   7.525   7.709 -1.3563  0.3385 -1.9595
    2ALA    HB2   13   8.127   7.685   7.767 -0.3115  1.7090 -2.4284
    2ALA    HB3   14   7.989   7.600   7.844 -1.1355  0.1220 -0.1713
    2ALA      C   15   7.908   7.819   7.685  0.1311 -0.2720  0.2895
    2ALA      O   16   7.789   7.842   7.689  0.4029 -0.2094 -0.0523
    3ALA      N   17   7.989   7.916   7.719 -0.2649  0.0505 -0.6845
    3ALA      H   18   8.084   7.900   7.689 -0.2171  1.0438 -1.1034
    3ALA     CA   19   7.971   8.046   7.784  0.4786 -0.1363 -0.5606
    3ALA     HA   20   7.864   8.066   7.793  0.4457  0.0400 -1.2972
    3ALA     CB   21   8.037   8.041   7.920 -0.2125 -0.4047  0.3640
    3ALA    HB1   22   8.028   8.139   7.966 -2.1827  0.7941 -2.2842
    3ALA    HB2   23   7.981   7.968   7.978 -1.2857  0.4844  0.4772
    3ALA    HB3   24   8.144   8.027   7.908  0.2823  0.3254  3.2116
    3ALA      C   25   8.021   8.172   7.700  0.4972  0.5868 -0.3617
    3ALA      O   26   8.013   8.282   7.752  0.2788 -0.1960 -0.2046
    4NME      N   27   8.063   8.162   7.575  0.2031  0.0471 -1.0038
    4NME      H   28   8.059   8.067   7.540  0.9506 -0.4936  0.2919
    4NME    CH3   29   8.101   8.276   7.491  0.5371  0.2167 -0.2271
    4NME   HH31   30   8.024   8.309   7.421  1.8534  1.6737 -1.0730
    4NME   HH32   31   8.119   8.362   7.556 -1.1164  1.0507 -0.8061
    4NME   HH33   32   8.194   8.260   7.436  0.4339  1.5397 -0.8231
  20.99041  20.99041  20.99041
