Protein
   42
    1ACE   HH31    1  11.545   8.044   7.050 -1.7592 -1.7802  1.4886
    1ACE    CH3    2  11.464   8.051   6.978 -0.0236 -0.1583 -0.4524
    1ACE   HH32    3  11.383   7.995   7.025  1.2940 -1.0222  0.8954
    1ACE   HH33    4  11.514   8.007   6.892  2.8053 -0.1909  1.0793
    1ACE      C    5  11.430   8.192   6.965  0.0470  0.1587 -0.2082
    1ACE      O    6  11.363   8.250   7.047  0.6084  0.1755 -0.0983
    2ALA      N    7  11.476   8.249   6.856  0.5931  0.3975 -0.2905
    2ALA      H    8  11.532   8.193   6.793  0.8764  0.5400 -0.1629
    2ALA     CA    9  11.476   8.394   6.837  0.2608 -1.1505 -0.0974
    2ALA     HA   10  11.397   8.439   6.897  1.3272  3.3842 -1.6521
    2ALA     CB   11  11.606   8.464   6.879 -0.0896 -0.0153 -0.1490
    2ALA    HB1   12  11.581   8.567   6.907 -1.1174 -0.5299  0.8993
    2ALA    HB2   13  11.648   8.422   6.971  1.1194 -1.3707 -1.2960
    2ALA    HB3   14  11.678   8.447   6.799  2.4599  0.6570  1.8271
    2ALA      C   15  11.446   8.431   6.690  0.2504 -0.1600  0.0458
    2ALA      O   16  11.458   8.346   6.600  0.3669 -0.6199  0.3064
    3ALA      N   17  11.407   8.553   6.663  0.5360 -0.4403 -0.2768
    3ALA      H   18  11.394   8.615   6.742 -0.7193  0.8576 -1.4365
    3ALA     CA   19  11.397   8.622   6.530 -0.6191 -0.6055 -0.3393
    3ALA     HA   20  11.328   8.705   6.534  0.6534  0.6310 -2.2934
    3ALA     CB   21  11.544   8.683   6.501  0.7885  0.6193 -0.0217
    3ALA    HB1   22  11.548   8.738   6.407 -1.6028  0.8161 -0.0695
    3ALA    HB2   23  11.568   8.746   6.587 -0.3215  1.9200 -0.6198
    3ALA    HB3   24  11.618   8.606   6.481 -0.8216 -1.2116  0.6635
    3ALA      C   25  11.347   8.547   6.402 -0.5306  0.1211 -0.7048
    3ALA      O   26  11.409   8.569   6.296  0.2620  0.1280 -0.0613
    4ALA      N   27  11.248   8.459   6.400  0.3249  0.3653  1.1856
    4ALA      H   28  11.222   8.411   6.486  2.0122 -0.9966  1.0162
    4ALA     CA   29  11.191   8.396   6.278 -0.1693  0.8903 -0.3945
    4ALA     HA   30  11.137   8.316   6.328  1.5472  0.7776  1.3746
    4ALA     CB   31  11.101   8.501   6.224  0.1088 -0.2662 -0.1475
    4ALA    HB1   32  11.038   8.453   6.149  1.0616 -1.8171 -0.0049
    4ALA    HB2   33  11.047   8.552   6.303  0.7810  0.1235  0.0612
    4ALA    HB3   34  11.165   8.569   6.168  0.2202 -0.6248 -0.4594
    4ALA      C   35  11.281   8.313   6.177  0.1002 -0.3101  0.4712
    4ALA      O   36  11.234   8.253   6.083  0.7769 -0.0417 -0.2594
    5NME      N   37  11.416   8.324   6.185 -0.0083 -0.3298  0.1174
    5NME      H   38  11.451   8.393   6.249  0.4363 -0.5377  0.1033
    5NME    CH3   39  11.504   8.226   6.116  0.3457  0.6424  0.3011
    5NME   HH31   40  11.600   8.273   6.096  0.5870 -0.4345 -1.2853
    5NME   HH32   41  11.517   8.138   6.180  0.5730 -0.2920 -1.0147
    5NME   HH33   42  11.453   8.194   6.026 -0.8992  0.6401  0.9756
  20.91516  20.91516  20.91516
