Protein
   32
    1ACE   HH31    1   7.342  14.045  11.954  1.6043 -1.6612 -0.3852
    1ACE    CH3    2   7.375  14.098  11.864  0.6207 -0.1287  0.1119
    1ACE   HH32    3   7.296  14.153  11.813  2.2777  1.4845 -0.8220
    1ACE   HH33    4   7.430  14.033  11.796  1.2000  1.5314 -1.0730
    1ACE      C    5   7.471  14.206  11.900 -0.1177  0.9080  0.0385
    1ACE      O    6   7.482  14.311  11.844  0.1269 -0.4145 -0.2402
    2ALA      N    7   7.543  14.178  12.006  0.0277  0.3469 -0.2337
    2ALA      H    8   7.531  14.087  12.047 -0.3736  1.3715  2.0653
    2ALA     CA    9   7.671  14.247  12.041  0.0599 -0.1262 -0.6956
    2ALA     HA   10   7.654  14.337  12.100  2.0135  0.0710 -0.3875
    2ALA     CB   11   7.743  14.158  12.155  0.4284 -0.2285  0.1660
    2ALA    HB1   12   7.681  14.147  12.245  0.8363 -1.0956  0.3534
    2ALA    HB2   13   7.777  14.065  12.109 -0.9741 -0.3583 -0.6989
    2ALA    HB3   14   7.836  14.204  12.186  0.1088 -0.6756  1.9128
    2ALA      C   15   7.781  14.289  11.937 -0.0089  0.0693 -0.5507
    2ALA      O   16   7.902  14.254  11.955 -0.7030  0.0670 -0.1987
    3ALA      N   17   7.747  14.345  11.818  0.4944 -0.2897 -0.0477
    3ALA      H   18   7.649  14.358  11.799  0.4468 -0.5024  0.0364
    3ALA     CA   19   7.833  14.351  11.695  0.0642 -0.6377  0.6091
    3ALA     HA   20   7.766  14.377  11.614  0.8322  0.9183  0.4445
    3ALA     CB   21   7.927  14.475  11.698 -0.3537  0.0278 -0.1692
    3ALA    HB1   22   7.975  14.491  11.601 -0.0759  1.8320  0.2131
    3ALA    HB2   23   7.877  14.564  11.736 -1.7296 -0.7883 -0.0135
    3ALA    HB3   24   8.010  14.459  11.766 -0.4987  1.5200  0.3980
    3ALA      C   25   7.894  14.215  11.657 -0.0138  0.0146 -0.0418
    3ALA      O   26   7.840  14.136  11.576  0.5027 -0.1566 -0.3828
    4NME      N   27   8.015  14.188  11.706 -0.3432 -0.0663 -0.3242
    4NME      H   28   8.042  14.232  11.793 -1.8305  1.3165 -0.5269
    4NME    CH3   29   8.101  14.075  11.675  0.4027  0.7620 -0.3906
    4NME   HH31   30   8.134  14.086  11.572  2.1412  0.6574  0.1321
    4NME   HH32   31   8.184  14.069  11.746 -0.4246  0.0422  0.5560
    4NME   HH33   32   8.048  13.981  11.692  0.8513  0.8011  1.4196
  20.99041  20.99041  20.99041
