Protein
   32
    1ACE   HH31    1  14.372  12.384  13.754 -0.3621  0.0990  0.2963
    1ACE    CH3    2  14.389  12.485  13.716  0.8108 -0.1449  0.1196
    1ACE   HH32    3  14.326  12.562  13.762  0.5253 -0.5908  0.5021
    1ACE   HH33    4  14.373  12.482  13.608 -1.2932  0.4086  0.3593
    1ACE      C    5  14.535  12.520  13.749 -0.0527  0.0136  0.2083
    1ACE      O    6  14.590  12.446  13.826  0.0454  0.1696  0.2767
    2ALA      N    7  14.584  12.639  13.721  0.0978  0.4935  0.4359
    2ALA      H    8  14.522  12.696  13.665 -1.2058 -1.0033  0.3022
    2ALA     CA    9  14.720  12.669  13.739 -0.0159 -0.2829  0.8390
    2ALA     HA   10  14.770  12.573  13.727 -0.5437 -0.5302  0.5634
    2ALA     CB   11  14.755  12.770  13.623  0.0975  0.6880 -0.1825
    2ALA    HB1   12  14.747  12.874  13.656  0.7422  1.2227 -1.6220
    2ALA    HB2   13  14.857  12.749  13.593  0.0730 -0.3541  0.4270
    2ALA    HB3   14  14.691  12.746  13.538  1.6281 -2.2404 -0.6063
    2ALA      C   15  14.763  12.709  13.880 -0.1879 -0.1424 -0.0040
    2ALA      O   16  14.884  12.698  13.905  0.5279  0.0284 -0.2752
    3ALA      N   17  14.677  12.766  13.964 -0.2394 -0.5856 -0.0717
    3ALA      H   18  14.585  12.785  13.927 -0.4442  0.2514  0.8239
    3ALA     CA   19  14.714  12.813  14.098  0.2172  0.0835  0.9154
    3ALA     HA   20  14.810  12.769  14.123 -0.0923 -0.5572  1.0208
    3ALA     CB   21  14.714  12.966  14.092 -0.6127  0.3682  0.0150
    3ALA    HB1   22  14.624  13.012  14.052 -0.1341  2.7301  1.4585
    3ALA    HB2   23  14.739  12.997  14.194  2.0378  0.5951 -0.6357
    3ALA    HB3   24  14.801  12.992  14.033  1.3717 -1.0309  2.1202
    3ALA      C   25  14.617  12.757  14.205  0.1094  0.1212  0.4973
    3ALA      O   26  14.603  12.804  14.313  0.0067 -0.4083  0.4109
    4NME      N   27  14.553  12.644  14.174  0.7751 -0.1310 -0.2997
    4NME      H   28  14.583  12.607  14.085  0.9257  0.1040 -0.3470
    4NME    CH3   29  14.463  12.568  14.257 -0.2659  0.3010 -0.7089
    4NME   HH31   30  14.415  12.490  14.198 -2.7881  0.4540  0.9844
    4NME   HH32   31  14.521  12.519  14.336 -2.1104  0.4710  0.8603
    4NME   HH33   32  14.387  12.629  14.305 -0.7686  0.5987 -1.8575
  20.99041  20.99041  20.99041
