Protein
   32
    1ACE   HH31    1   7.242   9.911  12.921  2.8378 -1.1022 -1.3391
    1ACE    CH3    2   7.250   9.830  12.994 -0.6706 -0.1564  0.2523
    1ACE   HH32    3   7.303   9.751  12.942  2.2307  1.2236  0.9119
    1ACE   HH33    4   7.152   9.801  13.031 -0.1728 -0.8625  1.0306
    1ACE      C    5   7.331   9.875  13.108  0.8025  0.0075 -0.2410
    1ACE      O    6   7.403   9.799  13.173 -0.6337  0.3855  0.3019
    2ALA      N    7   7.327  10.011  13.124 -0.0699  0.2315 -0.2048
    2ALA      H    8   7.250  10.059  13.082 -1.8396 -1.7695  0.5392
    2ALA     CA    9   7.423  10.083  13.209 -0.3436 -0.5666 -0.3085
    2ALA     HA   10   7.457  10.016  13.287  0.2542  0.1251  0.0389
    2ALA     CB   11   7.540  10.129  13.120  0.4325 -0.1840 -0.3873
    2ALA    HB1   12   7.601  10.194  13.182  0.1232 -1.1255  0.9543
    2ALA    HB2   13   7.596  10.043  13.084  0.7502 -0.9177  1.7239
    2ALA    HB3   14   7.499  10.178  13.032 -0.9487  0.4053  0.5546
    2ALA      C   15   7.355  10.194  13.290  0.8432  0.4114 -0.0137
    2ALA      O   16   7.388  10.308  13.294  0.5324  0.3000 -0.3715
    3ALA      N   17   7.260  10.148  13.366 -0.2500  0.0073  0.8144
    3ALA      H   18   7.233  10.051  13.352  1.5287 -0.3295 -0.6335
    3ALA     CA   19   7.181  10.229  13.458 -0.1286  0.4046 -0.2272
    3ALA     HA   20   7.179  10.331  13.420  1.7732  1.1126  1.4607
    3ALA     CB   21   7.031  10.179  13.459  0.6728  0.1449 -0.5274
    3ALA    HB1   22   6.988  10.166  13.360  1.1883  0.4344 -0.7905
    3ALA    HB2   23   7.032  10.085  13.515  0.5265 -0.7450 -1.9677
    3ALA    HB3   24   6.969  10.253  13.510  0.1462 -0.2112 -0.6461
    3ALA      C   25   7.258  10.257  13.588  0.2016 -0.1097 -0.0906
    3ALA      O   26   7.292  10.164  13.661 -0.2074 -0.2862 -0.0688
    4NME      N   27   7.299  10.382  13.614  0.1218 -0.2063 -0.7912
    4NME      H   28   7.297  10.446  13.536  0.9491  0.0421 -0.6221
    4NME    CH3   29   7.369  10.414  13.744 -0.0577 -0.3525  0.9100
    4NME   HH31   30   7.467  10.368  13.756 -0.1628 -0.4446  1.4705
    4NME   HH32   31   7.379  10.523  13.752  0.5467 -0.4691  1.9935
    4NME   HH33   32   7.331  10.376  13.839  0.8235 -0.2025  1.3295
  20.99041  20.99041  20.99041
