Protein
   22
    1ACE   HH31    1   8.330   5.855   7.550  1.5497 -2.1319 -0.2736
    1ACE    CH3    2   8.403   5.934   7.568 -0.5359 -0.1190 -0.1232
    1ACE   HH32    3   8.402   5.966   7.672 -0.2480 -1.2422  0.2325
    1ACE   HH33    4   8.397   6.015   7.495  0.0997 -0.9590 -1.1295
    1ACE      C    5   8.520   5.865   7.523  0.1476 -0.4837 -0.2708
    1ACE      O    6   8.570   5.893   7.415  0.0647  0.3736 -0.0353
    2ALA      N    7   8.560   5.764   7.600 -0.0605 -0.3882 -0.4919
    2ALA      H    8   8.506   5.741   7.682  4.1255 -2.4689  2.0580
    2ALA     CA    9   8.647   5.648   7.549 -0.0639 -0.2779  0.4158
    2ALA     HA   10   8.703   5.691   7.466 -0.2779  1.0921  0.9540
    2ALA     CB   11   8.750   5.616   7.663  0.0753  0.6458  0.0977
    2ALA    HB1   12   8.804   5.708   7.685 -0.2952  0.3019  2.8825
    2ALA    HB2   13   8.695   5.587   7.753  0.5625 -1.4492 -0.2453
    2ALA    HB3   14   8.821   5.544   7.622  1.0716  1.7904 -0.2720
    2ALA      C   15   8.565   5.524   7.490  0.3965  0.2545 -0.9456
    2ALA      O   16   8.455   5.545   7.442  0.2082 -0.1303 -0.0242
    3NME      N   17   8.615   5.403   7.504 -0.3159  0.1323  0.4419
    3NME      H   18   8.706   5.391   7.545 -0.6800 -0.1658  1.1731
    3NME    CH3   19   8.545   5.275   7.481  0.3999 -0.9193  0.0538
    3NME   HH31   20   8.613   5.191   7.498 -0.2104 -0.9057  2.9536
    3NME   HH32   21   8.458   5.254   7.543  1.5113  1.1109  2.4353
    3NME   HH33   22   8.522   5.275   7.374 -0.6963 -0.5841  0.2750
  10.72160  10.72160  10.72160
