Protein
   42
    1ACE   HH31    1  13.025  15.020   5.158 -0.4369  0.1576 -0.3775
    1ACE    CH3    2  13.092  14.942   5.194 -0.0895  0.4425 -0.3913
    1ACE   HH32    3  13.147  14.895   5.112  1.2484 -1.2761  1.3930
    1ACE   HH33    4  13.026  14.867   5.237 -2.3202  1.6705 -1.4378
    1ACE      C    5  13.195  14.986   5.292  0.2687 -0.4196  0.0072
    1ACE      O    6  13.195  14.958   5.410  0.3216 -0.3065 -0.0042
    2ALA      N    7  13.292  15.070   5.245 -0.2887  0.3044 -0.0536
    2ALA      H    8  13.283  15.096   5.148  1.5942  0.3351 -0.2484
    2ALA     CA    9  13.415  15.116   5.316 -0.2612  0.0960  0.2081
    2ALA     HA   10  13.423  15.087   5.421 -0.1755  1.9867  0.7550
    2ALA     CB   11  13.545  15.063   5.256  0.1129 -0.3363 -0.1476
    2ALA    HB1   12  13.630  15.079   5.324 -1.4271 -0.4170  1.8904
    2ALA    HB2   13  13.531  14.955   5.244  0.1987 -0.4414  0.6359
    2ALA    HB3   14  13.570  15.119   5.166  0.2867  0.1542  0.2042
    2ALA      C   15  13.430  15.269   5.327  0.8451  0.7041 -0.1054
    2ALA      O   16  13.533  15.320   5.302  0.1763 -0.4928  0.1972
    3ALA      N   17  13.326  15.345   5.382 -0.4343 -0.2254  0.3650
    3ALA      H   18  13.344  15.444   5.377  1.0613 -0.5075 -0.5297
    3ALA     CA   19  13.196  15.309   5.437 -0.3817  0.4648  0.0194
    3ALA     HA   20  13.173  15.206   5.410  2.5118 -0.2706  0.0116
    3ALA     CB   21  13.217  15.310   5.595  0.2431  0.4974 -0.5773
    3ALA    HB1   22  13.293  15.237   5.623  1.2385  1.0208 -1.8304
    3ALA    HB2   23  13.251  15.410   5.623 -0.5037  0.9183 -1.1405
    3ALA    HB3   24  13.119  15.297   5.640  0.2605 -0.8624 -0.9017
    3ALA      C   25  13.079  15.397   5.385 -0.8292 -0.1938  0.0473
    3ALA      O   26  13.107  15.506   5.339  0.1645 -0.9362  0.1069
    4ALA      N   27  12.954  15.349   5.405 -0.6453 -0.2979  0.2571
    4ALA      H   28  12.928  15.264   5.453 -2.2465  0.8296  1.5311
    4ALA     CA   29  12.832  15.422   5.360  0.2367  0.3666 -0.0169
    4ALA     HA   30  12.853  15.529   5.355  0.6051  0.4119  1.9738
    4ALA     CB   31  12.799  15.362   5.225 -0.2286  0.3131 -0.0597
    4ALA    HB1   32  12.850  15.415   5.145 -1.7191 -1.0105 -1.9843
    4ALA    HB2   33  12.821  15.255   5.223 -1.0901  0.1127  0.6785
    4ALA    HB3   34  12.694  15.384   5.207 -0.1717  0.1320 -0.6503
    4ALA      C   35  12.722  15.418   5.474  0.2394 -0.3023 -0.1440
    4ALA      O   36  12.701  15.313   5.533 -0.6483 -0.0940  0.2534
    5NME      N   37  12.655  15.539   5.498 -0.0560 -0.7532 -0.4484
    5NME      H   38  12.683  15.622   5.448  0.1654 -0.9278 -0.6172
    5NME    CH3   39  12.543  15.545   5.588 -0.3725 -0.8780 -0.4946
    5NME   HH31   40  12.471  15.465   5.569 -1.0074 -0.5072  0.3084
    5NME   HH32   41  12.581  15.556   5.690 -1.7416  3.7498 -0.2709
    5NME   HH33   42  12.485  15.632   5.558 -0.1708 -0.7594 -0.5464
  20.91516  20.91516  20.91516
