Protein
   60
    1ACE   HH31    1  20.926  18.341  20.736  0.4817 -2.3778 -1.5765
    1ACE    CH3    2  20.827  18.349  20.693 -0.1988 -0.0528  0.1927
    1ACE   HH32    3  20.790  18.250  20.664  0.6556 -0.3437  0.0909
    1ACE   HH33    4  20.769  18.377  20.781 -0.0285 -2.0714  0.9966
    1ACE      C    5  20.814  18.453  20.581 -0.3212  0.5677  0.4643
    1ACE      O    6  20.908  18.512  20.540 -0.3228  0.2598  0.0443
    2TRP      N    7  20.700  18.471  20.512 -0.3134  0.4737  0.7572
    2TRP      H    8  20.719  18.510  20.422  2.6287  1.8740  1.8671
    2TRP     CA    9  20.567  18.414  20.543  0.6726  0.0045  0.2942
    2TRP     HA   10  20.581  18.313  20.582 -2.2132 -0.5587  0.0298
    2TRP     CB   11  20.489  18.518  20.633  0.4948 -0.8783 -0.5326
    2TRP    HB1   12  20.460  18.602  20.571  0.9175 -0.0837  0.3307
    2TRP    HB2   13  20.555  18.542  20.717  0.7509 -1.4646 -0.5585
    2TRP     CG   14  20.361  18.477  20.693  0.1914  0.2829  0.0493
    2TRP    CD1   15  20.240  18.467  20.633  0.0414  0.4259  0.9063
    2TRP    HD1   16  20.223  18.493  20.529  1.6604 -1.1745  0.1881
    2TRP    NE1   17  20.140  18.427  20.719  0.2113 -0.1297 -0.1852
    2TRP    HE1   18  20.042  18.424  20.695 -0.2736 -2.0834  1.7462
    2TRP    CE2   19  20.193  18.391  20.841 -0.5212  0.3826 -0.0845
    2TRP    CZ2   20  20.135  18.332  20.958 -0.7849  0.3185  0.0677
    2TRP    HZ2   21  20.030  18.307  20.953 -0.5025 -1.1757  0.9090
    2TRP    CH2   22  20.217  18.320  21.075 -0.3793 -0.5218  0.9006
    2TRP    HH2   23  20.171  18.286  21.166 -0.8335 -1.2700  0.4106
    2TRP    CZ3   24  20.355  18.351  21.063  0.1429 -0.3070 -0.4007
    2TRP    HZ3   25  20.418  18.339  21.150 -1.1406 -0.8349  0.4978
    2TRP    CE3   26  20.408  18.405  20.946  0.1296 -0.4410 -0.5422
    2TRP    HE3   27  20.509  18.445  20.948 -0.1688  0.3010 -0.3713
    2TRP    CD2   28  20.327  18.434  20.831 -0.3987  0.3612 -0.6024
    2TRP      C   29  20.478  18.400  20.418 -0.0892  0.3102 -0.1741
    2TRP      O   30  20.484  18.481  20.327 -0.6472  0.2066  0.1505
    3TRP      N   31  20.394  18.293  20.408 -0.5662 -0.3033 -0.0591
    3TRP      H   32  20.333  18.302  20.328 -1.6551  0.1181  0.8039
    3TRP     CA   33  20.360  18.194  20.510 -0.4579  0.0476  0.1151
    3TRP     HA   34  20.393  18.224  20.609  2.5177  1.5120 -1.1808
    3TRP     CB   35  20.430  18.057  20.485 -0.1959  0.0087 -0.0316
    3TRP    HB1   36  20.379  17.988  20.552 -1.8233 -0.8859 -2.1057
    3TRP    HB2   37  20.391  18.025  20.388  1.0785  3.3678 -1.8162
    3TRP     CG   38  20.576  18.050  20.491 -0.4848 -0.5452  0.5693
    3TRP    CD1   39  20.640  17.988  20.589  0.0483  0.1466 -0.8332
    3TRP    HD1   40  20.593  17.935  20.671 -0.1044  0.7730 -0.5149
    3TRP    NE1   41  20.777  17.996  20.568  0.4453  0.0373 -0.3770
    3TRP    HE1   42  20.845  17.961  20.635 -0.9992  1.0675  1.7477
    3TRP    CE2   43  20.812  18.055  20.446 -0.1786  0.1510 -0.6218
    3TRP    CZ2   44  20.932  18.088  20.381 -0.9194  0.4760  0.3638
    3TRP    HZ2   45  21.030  18.054  20.413 -0.8492 -0.2048 -0.5343
    3TRP    CH2   46  20.935  18.157  20.259 -0.7314 -0.0862 -0.6978
    3TRP    HH2   47  21.032  18.175  20.214 -0.0096  1.4738  1.3462
    3TRP    CZ3   48  20.812  18.201  20.204  0.1741 -0.5577 -0.4864
    3TRP    HZ3   49  20.822  18.249  20.107  1.6295 -1.4514 -0.8096
    3TRP    CE3   50  20.692  18.176  20.271  0.2099  0.7387  0.0295
    3TRP    HE3   51  20.596  18.216  20.243  0.1118  0.5902  0.1531
    3TRP    CD2   52  20.688  18.102  20.400 -0.0866 -0.1461 -0.2225
    3TRP      C   53  20.212  18.179  20.513  0.3788 -0.6932 -0.2768
    3TRP      O   54  20.140  18.221  20.423  0.4316 -0.4630  0.0352
    4NME      N   55  20.158  18.118  20.616 -0.1701 -0.0167  0.1511
    4NME      H   56  20.221  18.086  20.688  0.9357 -3.2260 -2.0282
    4NME    CH3   57  20.015  18.089  20.635 -0.2791  0.1876 -0.0833
    4NME   HH31   58  19.982  18.099  20.739  2.0451 -0.2687  0.7655
    4NME   HH32   59  19.948  18.156  20.580  0.8414  1.2745 -0.1718
    4NME   HH33   60  19.989  17.985  20.615 -0.8820  0.1420  0.8777
  41.12396  41.12396  41.12396
