Protein
   42
    1ACE   HH31    1  15.643   4.157   9.679  1.2518 -0.4653  0.1649
    1ACE    CH3    2  15.637   4.065   9.620  0.1891  0.2627 -0.9358
    1ACE   HH32    3  15.736   4.037   9.584 -0.2218 -1.6015 -0.6937
    1ACE   HH33    4  15.571   4.088   9.537  0.2600  1.0414 -0.7843
    1ACE      C    5  15.599   3.953   9.710  0.4824 -0.6840  0.4983
    1ACE      O    6  15.678   3.865   9.745  0.0640  0.1088  0.4236
    2ALA      N    7  15.474   3.951   9.752 -0.0869  0.4213  0.5808
    2ALA      H    8  15.410   4.029   9.753 -1.8887 -0.9944  1.6289
    2ALA     CA    9  15.415   3.846   9.840 -0.0210 -0.0757  0.0816
    2ALA     HA   10  15.484   3.819   9.920 -1.2256  1.2389  1.6398
    2ALA     CB   11  15.298   3.916   9.913 -0.0970 -0.0373  0.4731
    2ALA    HB1   12  15.338   3.999   9.972  1.5480 -1.5285  1.5394
    2ALA    HB2   13  15.211   3.948   9.855 -0.2079 -1.2349 -0.0397
    2ALA    HB3   14  15.255   3.853   9.991  0.9935 -2.9397 -1.1494
    2ALA      C   15  15.378   3.713   9.781  0.6461 -0.3902 -0.8532
    2ALA      O   16  15.276   3.653   9.826 -0.3078 -0.1474  0.0356
    3ALA      N   17  15.451   3.674   9.673  0.4793 -0.2413  0.4489
    3ALA      H   18  15.535   3.724   9.648  1.2864 -1.2600  0.9733
    3ALA     CA   19  15.415   3.585   9.564 -0.0278  0.9363  0.2166
    3ALA     HA   20  15.453   3.484   9.578  1.6665  1.8297  2.5575
    3ALA     CB   21  15.260   3.578   9.537  0.2881 -0.0791 -0.3067
    3ALA    HB1   22  15.225   3.681   9.527 -0.1796 -0.0614  1.2700
    3ALA    HB2   23  15.232   3.534   9.441  2.0211  0.5011 -1.1154
    3ALA    HB3   24  15.206   3.520   9.612 -2.5472 -2.1309 -3.5249
    3ALA      C   25  15.476   3.646   9.438  1.0932 -0.0045  0.4223
    3ALA      O   26  15.478   3.768   9.417 -0.2751  0.4465 -0.5419
    4ALA      N   27  15.526   3.558   9.351  0.1107  0.0984  0.6657
    4ALA      H   28  15.516   3.459   9.367 -1.0849 -0.1123 -1.1516
    4ALA     CA   29  15.604   3.600   9.231 -0.0168  0.3004  0.3530
    4ALA     HA   30  15.570   3.700   9.205  0.7692  0.8816  1.4802
    4ALA     CB   31  15.747   3.619   9.268  0.2061  0.1262  0.0059
    4ALA    HB1   32  15.760   3.717   9.315  2.1471 -1.2395  2.5887
    4ALA    HB2   33  15.780   3.542   9.337 -0.0486  0.3047  0.3378
    4ALA    HB3   34  15.815   3.625   9.183  1.6873  3.2841  1.2439
    4ALA      C   35  15.598   3.503   9.105  0.2503 -0.1006 -0.0057
    4ALA      O   36  15.586   3.385   9.122 -0.3769  0.3335 -0.2119
    5NME      N   37  15.599   3.554   8.982  0.1315  0.1075  0.6260
    5NME      H   38  15.587   3.653   8.969  0.6007 -0.1850 -3.3362
    5NME    CH3   39  15.613   3.476   8.856 -0.1026 -0.1010 -0.9812
    5NME   HH31   40  15.639   3.372   8.876 -0.4752 -0.1232 -0.6094
    5NME   HH32   41  15.511   3.461   8.822 -0.4381  1.8403 -0.9502
    5NME   HH33   42  15.682   3.514   8.780  1.5751 -1.9262 -0.4761
  20.91516  20.91516  20.91516
