Protein
   42
    1ACE   HH31    1  14.361   8.355   9.325  2.0791 -0.4609 -0.2904
    1ACE    CH3    2  14.368   8.390   9.222 -0.9461  0.2746 -0.3434
    1ACE   HH32    3  14.476   8.386   9.208 -0.6194 -0.8731  2.1263
    1ACE   HH33    4  14.327   8.489   9.202 -1.6818 -0.4056 -2.4335
    1ACE      C    5  14.320   8.301   9.113  0.6118  0.2795 -0.4972
    1ACE      O    6  14.370   8.298   9.006  0.3301  0.5740  0.0839
    2ALA      N    7  14.218   8.218   9.140  0.1436  0.2984  0.0251
    2ALA      H    8  14.174   8.227   9.231  3.0921  3.7943  1.3684
    2ALA     CA    9  14.168   8.113   9.050  0.3782 -0.3859 -0.6180
    2ALA     HA   10  14.254   8.061   9.007 -0.1579 -0.5367 -1.5590
    2ALA     CB   11  14.096   8.013   9.141 -0.1559 -0.6795  0.1155
    2ALA    HB1   12  14.160   7.973   9.220 -0.0704  0.1377  0.4641
    2ALA    HB2   13  14.022   8.074   9.193  1.3806 -1.1967  3.1580
    2ALA    HB3   14  14.056   7.936   9.075 -0.0193 -0.0723 -0.6824
    2ALA      C   15  14.076   8.164   8.925  0.5461  0.3391 -0.5895
    2ALA      O   16  13.960   8.123   8.911  0.1062 -0.1638  0.2362
    3ALA      N   17  14.129   8.235   8.829  0.7522 -0.0096 -0.6197
    3ALA      H   18  14.224   8.264   8.847  0.1851  2.2508 -0.9923
    3ALA     CA   19  14.062   8.281   8.705 -0.3431  0.8932  0.5845
    3ALA     HA   20  13.958   8.300   8.732 -0.5490  1.6057 -0.6523
    3ALA     CB   21  14.129   8.413   8.652 -0.5490  0.2100  0.5936
    3ALA    HB1   22  14.233   8.393   8.628 -0.4921  0.3058  0.7581
    3ALA    HB2   23  14.067   8.452   8.570 -0.2872 -2.2713 -0.8528
    3ALA    HB3   24  14.115   8.488   8.730  0.2707 -0.5178  1.4490
    3ALA      C   25  14.061   8.171   8.594 -0.8265  0.7202 -0.2589
    3ALA      O   26  14.111   8.189   8.485  0.4843 -0.1925 -0.1517
    4ALA      N   27  13.993   8.059   8.622 -0.0241 -0.4261 -0.2075
    4ALA      H   28  13.950   8.046   8.712 -0.9218 -2.5954 -0.8673
    4ALA     CA   29  13.951   7.958   8.530  0.1877  0.0307  0.7540
    4ALA     HA   30  13.885   7.895   8.591 -0.6225 -1.0746 -1.1543
    4ALA     CB   31  13.872   8.029   8.416  0.4432 -0.1025 -0.1777
    4ALA    HB1   32  13.799   7.958   8.377  1.8973 -1.2356 -0.9432
    4ALA    HB2   33  13.825   8.118   8.457  1.0238  0.3052 -0.3951
    4ALA    HB3   34  13.935   8.053   8.330  0.8032 -3.0552 -0.8397
    4ALA      C   35  14.053   7.860   8.483 -0.5884 -0.1202 -0.1369
    4ALA      O   36  14.046   7.741   8.510 -0.1970  0.3592 -0.0875
    5NME      N   37  14.145   7.911   8.401  0.4108 -0.5209 -0.3878
    5NME      H   38  14.158   8.011   8.406  1.1444 -0.6484  1.1121
    5NME    CH3   39  14.257   7.844   8.333 -0.2629 -0.3480 -0.6620
    5NME   HH31   40  14.230   7.864   8.229 -1.6911 -0.8718 -0.4214
    5NME   HH32   41  14.354   7.890   8.352 -1.3100  1.5612  0.3976
    5NME   HH33   42  14.262   7.738   8.359  0.1061  0.3285  2.4874
  20.91516  20.91516  20.91516
