Protein
   42
    1ACE   HH31    1  10.753  12.737  12.359  0.1991  0.2719 -0.5929
    1ACE    CH3    2  10.713  12.775  12.266 -0.0015  0.3957 -0.4563
    1ACE   HH32    3  10.610  12.802  12.289 -0.0653  0.3781 -0.6986
    1ACE   HH33    4  10.711  12.705  12.182 -0.9954  1.1086 -1.0553
    1ACE      C    5  10.786  12.890  12.208  0.2735 -1.2410 -0.0333
    1ACE      O    6  10.910  12.891  12.207  0.2888  0.4396 -0.0207
    2ALA      N    7  10.721  12.997  12.172  0.5017  0.3468  0.3771
    2ALA      H    8  10.620  12.998  12.175  0.2828 -0.5065 -2.8033
    2ALA     CA    9  10.784  13.104  12.104  0.0198  0.2452 -0.2366
    2ALA     HA   10  10.865  13.143  12.166  0.9234  2.1083 -2.4499
    2ALA     CB   11  10.853  13.064  11.976  0.0189 -0.5628 -0.2978
    2ALA    HB1   12  10.927  12.986  11.990 -0.7303 -1.3877 -0.8327
    2ALA    HB2   13  10.770  13.045  11.908 -0.9065  2.9396 -0.3584
    2ALA    HB3   14  10.909  13.152  11.945 -0.2356 -0.0956  0.5039
    2ALA      C   15  10.676  13.214  12.071 -0.7777  0.0378 -0.3654
    2ALA      O   16  10.568  13.181  12.023 -0.0607 -0.3131 -0.4265
    3ALA      N   17  10.708  13.340  12.093  0.3275  0.1543  0.2500
    3ALA      H   18  10.636  13.407  12.068  1.5568  0.7459 -1.9582
    3ALA     CA   19  10.814  13.404  12.169  0.3235 -0.2716  0.1639
    3ALA     HA   20  10.765  13.498  12.193 -0.0681 -0.5540  0.4853
    3ALA     CB   21  10.830  13.348  12.307 -0.1822  0.0152  0.2255
    3ALA    HB1   22  10.732  13.306  12.328  0.2454 -0.7648  0.6797
    3ALA    HB2   23  10.901  13.266  12.318  2.6128  2.1940 -0.3286
    3ALA    HB3   24  10.850  13.428  12.377 -1.1915  0.5218 -0.0450
    3ALA      C   25  10.936  13.452  12.087  0.3350  0.4906 -0.2390
    3ALA      O   26  11.031  13.505  12.142  0.3327 -0.2075  0.7948
    4ALA      N   27  10.928  13.419  11.956  0.0579 -0.5651 -0.7554
    4ALA      H   28  10.860  13.348  11.936 -0.9148  0.0656  0.2015
    4ALA     CA   29  11.026  13.462  11.848  0.2941 -0.3914 -0.2627
    4ALA     HA   30  11.126  13.460  11.892 -0.2257 -0.4254  0.9359
    4ALA     CB   31  11.022  13.369  11.725  0.2601 -0.3503  0.2197
    4ALA    HB1   32  11.050  13.269  11.757  0.4293 -0.0952  0.8974
    4ALA    HB2   33  10.923  13.364  11.681 -0.6499 -0.1590  2.1241
    4ALA    HB3   34  11.084  13.405  11.643 -0.7818  0.2584 -0.3227
    4ALA      C   35  10.990  13.607  11.800  0.0595  1.4019 -0.4137
    4ALA      O   36  10.937  13.641  11.690  0.2592 -0.0567  0.0155
    5NME      N   37  11.014  13.703  11.887 -0.1124  0.3786 -0.5534
    5NME      H   38  11.070  13.679  11.967  1.5555  1.1454 -1.4322
    5NME    CH3   39  10.999  13.846  11.865  0.2931 -0.4358  0.3980
    5NME   HH31   40  10.910  13.891  11.909  0.2863  0.6728 -0.6663
    5NME   HH32   41  11.083  13.906  11.900  1.2844 -0.2872 -2.0408
    5NME   HH33   42  10.994  13.882  11.762 -0.2632  3.1506  1.5355
  20.91516  20.91516  20.91516
