Protein
   42
    1ACE   HH31    1   8.239   8.879  10.717 -0.0588 -0.3916  0.4264
    1ACE    CH3    2   8.147   8.934  10.738 -0.3603 -0.4449 -0.7140
    1ACE   HH32    3   8.057   8.875  10.723 -0.9312  0.0139  0.7553
    1ACE   HH33    4   8.147   9.028  10.683  0.3092 -0.0126  0.0124
    1ACE      C    5   8.137   8.959  10.891 -0.5382  0.2928 -0.3002
    1ACE      O    6   8.179   9.067  10.937 -0.2861  0.1148 -0.1296
    2ALA      N    7   8.064   8.866  10.960  0.2569  0.1076  0.0189
    2ALA      H    8   8.027   8.790  10.904  1.4690  0.7559 -1.7665
    2ALA     CA    9   8.017   8.885  11.102  0.1500  0.2131  0.2753
    2ALA     HA   10   8.086   8.940  11.166  1.3104 -1.6928  0.7480
    2ALA     CB   11   7.890   8.974  11.096  1.1485  0.7903  0.2888
    2ALA    HB1   12   7.869   9.016  11.195 -2.5729 -1.4820  0.6792
    2ALA    HB2   13   7.906   9.061  11.032 -2.4663  1.6291  0.3182
    2ALA    HB3   14   7.804   8.922  11.056  1.7381  1.6577 -2.3072
    2ALA      C   15   7.996   8.756  11.184 -0.0306  0.3148  0.0850
    2ALA      O   16   7.886   8.719  11.229 -0.6524 -0.1650  0.0334
    3ALA      N   17   8.089   8.664  11.205 -0.3349  0.4001  0.1395
    3ALA      H   18   8.048   8.579  11.240 -1.0166  0.2619 -0.9412
    3ALA     CA   19   8.233   8.667  11.175 -0.0884 -0.4655 -0.7217
    3ALA     HA   20   8.260   8.772  11.173  0.4669 -0.5025  1.7136
    3ALA     CB   21   8.314   8.602  11.288  0.5785  0.3983 -0.3439
    3ALA    HB1   22   8.270   8.508  11.319  3.5223 -0.6276  1.1647
    3ALA    HB2   23   8.410   8.561  11.257  0.2018 -0.6700 -0.1391
    3ALA    HB3   24   8.335   8.664  11.375  0.0979 -0.8881  0.7238
    3ALA      C   25   8.275   8.603  11.041  0.1083 -0.0092  0.0080
    3ALA      O   26   8.385   8.631  10.989 -0.2073 -0.0085 -0.0496
    4ALA      N   27   8.204   8.506  10.988  0.5844 -0.0507  0.1238
    4ALA      H   28   8.116   8.477  11.028  0.6141 -2.6425 -1.5089
    4ALA     CA   29   8.243   8.441  10.866  0.8001  0.1832  0.2702
    4ALA     HA   30   8.351   8.442  10.849  0.5840  0.8626 -1.1728
    4ALA     CB   31   8.223   8.291  10.882  0.7189 -1.0780 -0.4693
    4ALA    HB1   32   8.272   8.260  10.974 -1.3518  1.4182  1.6384
    4ALA    HB2   33   8.120   8.258  10.874  0.2634  0.3663 -1.0456
    4ALA    HB3   34   8.276   8.243  10.800 -1.3396 -1.0955 -1.8513
    4ALA      C   35   8.179   8.511  10.745  0.7009 -0.5115 -0.4118
    4ALA      O   36   8.065   8.560  10.761  0.1657 -0.4194 -0.2397
    5NME      N   37   8.248   8.511  10.632  0.6238  0.3010 -0.3747
    5NME      H   38   8.342   8.474  10.633  1.9286  3.1428  2.6754
    5NME    CH3   39   8.180   8.546  10.507 -0.2084 -0.0282 -0.4517
    5NME   HH31   40   8.107   8.473  10.474 -0.4748  0.4339 -0.8912
    5NME   HH32   41   8.144   8.649  10.507  0.7099  0.3075 -0.8303
    5NME   HH33   42   8.258   8.560  10.432  0.8854 -0.2632  0.6055
  20.91516  20.91516  20.91516
