Protein
   42
    1ACE   HH31    1   8.016  16.159   6.242  0.0321  2.2209 -0.0614
    1ACE    CH3    2   7.947  16.153   6.325  0.3530  0.3135  0.1179
    1ACE   HH32    3   7.868  16.216   6.285  1.5682  1.2124 -0.9578
    1ACE   HH33    4   7.969  16.207   6.417  1.4948  0.9504 -0.5136
    1ACE      C    5   7.897  16.012   6.352 -0.0050 -0.3352 -0.4785
    1ACE      O    6   7.788  15.975   6.303 -0.3677 -0.3159 -0.0028
    2ALA      N    7   7.961  15.950   6.444  0.1342  0.7689  0.2054
    2ALA      H    8   8.053  15.987   6.459  1.8803 -1.9618 -2.3864
    2ALA     CA    9   7.928  15.818   6.508  0.1508 -0.6653 -0.2745
    2ALA     HA   10   8.019  15.777   6.550  0.7040  1.6416  0.9753
    2ALA     CB   11   7.836  15.835   6.626  0.1602  0.7515 -0.2050
    2ALA    HB1   12   7.863  15.744   6.679  2.6576 -0.4057 -3.1290
    2ALA    HB2   13   7.871  15.918   6.686 -0.2539  0.2860  0.6877
    2ALA    HB3   14   7.730  15.844   6.600  0.0306 -1.0703 -0.4260
    2ALA      C   15   7.874  15.696   6.426  0.3448  0.2959  0.2663
    2ALA      O   16   7.842  15.596   6.489 -0.2997  0.1618 -0.1691
    3ALA      N   17   7.867  15.702   6.292 -0.5494  0.5181  0.5623
    3ALA      H   18   7.908  15.786   6.255  0.9034  0.2220  1.4362
    3ALA     CA   19   7.808  15.600   6.207  0.1116 -0.2299 -0.2349
    3ALA     HA   20   7.818  15.642   6.107 -3.3616  0.0904 -0.5750
    3ALA     CB   21   7.898  15.479   6.223 -0.2885  0.5723 -0.9523
    3ALA    HB1   22   8.000  15.517   6.214 -0.0225  1.3985  3.3171
    3ALA    HB2   23   7.892  15.419   6.313 -1.6831  1.4516 -0.4290
    3ALA    HB3   24   7.890  15.416   6.134 -1.0235  1.1938 -1.3427
    3ALA      C   25   7.660  15.568   6.223 -0.0232 -0.3463 -0.3244
    3ALA      O   26   7.594  15.580   6.115 -0.1267 -0.6258  0.3223
    4ALA      N   27   7.611  15.527   6.338  0.0604 -0.5213 -0.1425
    4ALA      H   28   7.674  15.505   6.414 -1.0141 -1.6638  0.4662
    4ALA     CA   29   7.472  15.500   6.364  0.5263 -0.3639 -0.0905
    4ALA     HA   30   7.431  15.450   6.277 -0.4708  1.7647 -0.9179
    4ALA     CB   31   7.453  15.405   6.486 -0.6145 -0.4083 -1.1084
    4ALA    HB1   32   7.486  15.305   6.458 -1.5848 -1.4189  1.0653
    4ALA    HB2   33   7.514  15.427   6.574  0.0866 -1.6941 -1.2477
    4ALA    HB3   34   7.350  15.391   6.520 -0.9564  1.4669 -1.2828
    4ALA      C   35   7.388  15.629   6.383 -0.5449 -0.7759 -0.0007
    4ALA      O   36   7.265  15.617   6.399  0.0171  0.2880  0.1929
    5NME      N   37   7.453  15.747   6.387 -0.2022 -0.0768  0.0223
    5NME      H   38   7.553  15.745   6.379 -0.0081 -1.3939  2.0398
    5NME    CH3   39   7.389  15.878   6.393 -0.2656 -0.2124  0.2138
    5NME   HH31   40   7.319  15.881   6.477 -1.9612  0.5267 -1.1854
    5NME   HH32   41   7.467  15.952   6.411  0.7025 -1.3078  0.5983
    5NME   HH33   42   7.331  15.898   6.303 -0.2960  1.5946  0.5799
  20.91516  20.91516  20.91516
