Protein
   42
    1ACE   HH31    1   7.469   3.952   8.926 -1.3773  0.6619 -1.2215
    1ACE    CH3    2   7.543   4.026   8.897 -0.4383  0.0823 -0.3841
    1ACE   HH32    3   7.639   3.984   8.866 -0.1154 -1.0745  1.9918
    1ACE   HH33    4   7.550   4.101   8.975  1.9934 -0.6687  0.1828
    1ACE      C    5   7.492   4.095   8.774  0.7731  0.3261 -0.2107
    1ACE      O    6   7.399   4.049   8.705 -0.3032 -0.3766  0.0423
    2ALA      N    7   7.557   4.202   8.729  0.1209 -0.1220  0.0543
    2ALA      H    8   7.628   4.245   8.786  0.6040  0.1472 -0.7399
    2ALA     CA    9   7.523   4.279   8.609 -0.0430 -0.4065  0.4582
    2ALA     HA   10   7.438   4.246   8.549 -1.0195  2.1828  0.2348
    2ALA     CB   11   7.483   4.419   8.665 -0.0398  0.0046 -0.6337
    2ALA    HB1   12   7.446   4.483   8.586 -0.6933  2.1202  1.2468
    2ALA    HB2   13   7.398   4.402   8.732  0.6650 -1.5487 -0.0610
    2ALA    HB3   14   7.567   4.470   8.712  0.2379 -2.0611  1.3412
    2ALA      C   15   7.642   4.284   8.509  0.1692 -0.1088 -0.0132
    2ALA      O   16   7.710   4.391   8.504 -0.2251  0.2993  0.1609
    3ALA      N   17   7.677   4.175   8.438 -0.1733  0.2447  0.3992
    3ALA      H   18   7.767   4.175   8.393 -0.4396  0.4020 -0.1493
    3ALA     CA   19   7.590   4.058   8.436 -0.0769 -0.0875  0.0293
    3ALA     HA   20   7.492   4.080   8.477  0.3292  1.9444  0.0327
    3ALA     CB   21   7.564   4.010   8.292 -0.2974 -0.2481 -0.0080
    3ALA    HB1   22   7.529   4.097   8.235 -0.1086 -1.2636 -1.7577
    3ALA    HB2   23   7.648   3.962   8.243  0.0560 -1.3203  1.5684
    3ALA    HB3   24   7.481   3.940   8.304  0.0508 -0.7366 -0.3989
    3ALA      C   25   7.643   3.941   8.515  0.1005  0.2425 -0.6526
    3ALA      O   26   7.765   3.929   8.533  0.5274 -1.0111 -0.0699
    4ALA      N   27   7.559   3.846   8.566 -0.0983 -0.6698  0.0186
    4ALA      H   28   7.460   3.866   8.559 -0.0156  0.0037  0.7243
    4ALA     CA   29   7.599   3.734   8.651  0.2593 -0.5847  0.3187
    4ALA     HA   30   7.667   3.779   8.723  0.7256 -0.2271 -0.3312
    4ALA     CB   31   7.475   3.690   8.723 -0.6833  0.6239  0.1772
    4ALA    HB1   32   7.406   3.635   8.659 -2.3657  0.4184  2.0547
    4ALA    HB2   33   7.518   3.631   8.803  1.7214  1.2074 -0.5930
    4ALA    HB3   34   7.419   3.777   8.758  0.5622  0.9606  1.4311
    4ALA      C   35   7.668   3.622   8.584  0.3205  0.0491  0.1152
    4ALA      O   36   7.618   3.511   8.580 -0.0879  0.1568 -0.5458
    5NME      N   37   7.787   3.649   8.534 -0.7950 -0.2042 -0.5571
    5NME      H   38   7.812   3.747   8.540 -0.6515 -0.3033  0.5984
    5NME    CH3   39   7.888   3.548   8.530  0.7640 -0.3880  0.3234
    5NME   HH31   40   7.903   3.520   8.425  1.4470 -0.6039  0.4705
    5NME   HH32   41   7.983   3.588   8.564  0.6166  0.6271 -0.4214
    5NME   HH33   42   7.867   3.457   8.586 -0.0317  0.1596  0.9404
  20.91516  20.91516  20.91516
