Protein
   42
    1ACE   HH31    1   9.860  10.158  13.530 -0.0663  1.0770 -1.0836
    1ACE    CH3    2   9.853  10.099  13.439  1.0694 -0.9790  0.1081
    1ACE   HH32    3   9.748  10.077  13.424  0.7605 -1.9282  2.9697
    1ACE   HH33    4   9.900  10.001  13.450 -0.0281 -1.7073 -1.3970
    1ACE      C    5   9.910  10.182  13.323 -0.4603 -0.0607  0.6423
    1ACE      O    6   9.842  10.269  13.267  0.0363 -0.1002  0.2427
    2ALA      N    7  10.037  10.162  13.293 -0.1323  0.3302 -0.0788
    2ALA      H    8  10.075  10.086  13.349  0.7815  0.1934 -0.8320
    2ALA     CA    9  10.128  10.218  13.192 -0.4758 -0.3358 -0.5971
    2ALA     HA   10  10.216  10.160  13.218 -1.0999 -0.9526  0.2064
    2ALA     CB   11  10.066  10.193  13.058  0.2162  0.4645 -0.5760
    2ALA    HB1   12  10.135  10.204  12.974  0.4573 -2.5492 -0.8579
    2ALA    HB2   13  10.036  10.088  13.063 -1.2376  0.9153  0.9959
    2ALA    HB3   14   9.978  10.256  13.050  0.3523  0.7132 -0.1538
    2ALA      C   15  10.168  10.366  13.216 -0.7459 -0.1568  0.4448
    2ALA      O   16  10.274  10.403  13.166 -0.5133 -0.4583 -1.0688
    3ALA      N   17  10.086  10.450  13.282  0.7205  0.1108 -0.1981
    3ALA      H   18   9.996  10.408  13.301 -0.5352  0.9240 -3.5572
    3ALA     CA   19  10.095  10.595  13.301  0.2656  0.9955  0.9627
    3ALA     HA   20  10.001  10.650  13.290  0.9639  1.9265 -0.9092
    3ALA     CB   21  10.128  10.609  13.451 -0.0740  0.3890 -0.6673
    3ALA    HB1   22  10.225  10.568  13.481  0.3716  1.6736 -0.2401
    3ALA    HB2   23  10.118  10.715  13.477  2.7506  1.2215 -2.4726
    3ALA    HB3   24  10.062  10.548  13.512  2.4842 -0.9890  0.9393
    3ALA      C   25  10.188  10.665  13.206  0.5661 -0.4606 -0.4506
    3ALA      O   26  10.144  10.697  13.096  0.4521  0.5170  0.0649
    4ALA      N   27  10.302  10.699  13.255 -0.0632  0.0004 -0.0868
    4ALA      H   28  10.331  10.646  13.336 -0.5378  0.1131  0.1729
    4ALA     CA   29  10.414  10.758  13.178  0.1332 -0.0033  0.7120
    4ALA     HA   30  10.418  10.867  13.180  3.3372 -0.0252  1.4481
    4ALA     CB   31  10.533  10.735  13.273  0.2973 -0.3916 -0.4696
    4ALA    HB1   32  10.610  10.804  13.240 -1.1781  1.1094 -0.9079
    4ALA    HB2   33  10.499  10.754  13.375  2.5756 -2.2428  0.7414
    4ALA    HB3   34  10.562  10.630  13.269 -0.2084 -0.5304 -0.5676
    4ALA      C   35  10.449  10.718  13.031 -0.4617  0.4085  0.6588
    4ALA      O   36  10.529  10.785  12.975 -0.4514 -0.5698 -0.4242
    5NME      N   37  10.387  10.613  12.979 -0.0537  0.3608  0.6714
    5NME      H   38  10.319  10.563  13.034 -0.8213 -0.7775 -1.2038
    5NME    CH3   39  10.406  10.581  12.832  0.1932  0.4437 -0.2898
    5NME   HH31   40  10.467  10.491  12.825  1.0507  1.0170 -0.2588
    5NME   HH32   41  10.305  10.579  12.791 -0.3044  1.2433  0.8719
    5NME   HH33   42  10.459  10.661  12.781  0.9662  1.3300  1.7978
  20.91516  20.91516  20.91516
