Protein
   42
    1ACE   HH31    1  11.230   9.346  13.686 -0.6960  2.2848 -1.2802
    1ACE    CH3    2  11.139   9.287  13.697  0.8973 -0.1707 -0.2874
    1ACE   HH32    3  11.142   9.208  13.772 -1.5592  1.9807  2.3840
    1ACE   HH33    4  11.122   9.237  13.602  1.3387 -1.7119  0.4248
    1ACE      C    5  11.021   9.384  13.728  0.0154  0.7768 -0.2806
    1ACE      O    6  11.039   9.507  13.725  0.2172 -0.2482 -0.0482
    2ALA      N    7  10.905   9.336  13.763  0.1516  0.2133  0.4652
    2ALA      H    8  10.897   9.236  13.769 -1.0462  0.3653  2.7013
    2ALA     CA    9  10.790   9.425  13.754 -0.1134  0.2747 -0.3007
    2ALA     HA   10  10.813   9.514  13.695  0.6900  0.0012 -0.4100
    2ALA     CB   11  10.682   9.358  13.668  0.0742 -0.1096 -0.5473
    2ALA    HB1   12  10.660   9.255  13.697  1.0544  0.0461  0.9189
    2ALA    HB2   13  10.594   9.421  13.669 -1.0286 -1.5619 -1.6910
    2ALA    HB3   14  10.712   9.366  13.564 -1.5975  4.5210 -0.8901
    2ALA      C   15  10.748   9.472  13.896 -0.0694  0.0844  0.9642
    2ALA      O   16  10.646   9.432  13.935  0.7580 -0.2706 -0.9438
    3ALA      N   17  10.823   9.570  13.952 -0.2247 -0.5837 -0.4859
    3ALA      H   18  10.895   9.614  13.896 -0.0835  0.2478  0.3030
    3ALA     CA   19  10.821   9.626  14.089  0.5079 -0.0441 -0.1103
    3ALA     HA   20  10.922   9.608  14.125  0.5032 -2.1736 -0.9936
    3ALA     CB   21  10.801   9.780  14.075 -0.0681  0.8528 -0.8626
    3ALA    HB1   22  10.860   9.816  13.991 -0.7045  0.1482 -1.6377
    3ALA    HB2   23  10.698   9.794  14.041 -0.1784  1.1998 -0.4031
    3ALA    HB3   24  10.826   9.824  14.172  3.6689  0.2809 -1.4280
    3ALA      C   25  10.723   9.551  14.195 -0.2600 -1.2123 -0.4181
    3ALA      O   26  10.768   9.493  14.295  0.1665  0.6718  0.0367
    4ALA      N   27  10.594   9.577  14.173 -0.3526 -0.0600  0.0816
    4ALA      H   28  10.571   9.609  14.080  0.3076 -1.2658 -0.5190
    4ALA     CA   29  10.479   9.531  14.254  0.6308 -0.7713 -0.7985
    4ALA     HA   30  10.507   9.559  14.355  0.7350  1.8489 -1.4730
    4ALA     CB   31  10.358   9.626  14.225 -0.0842 -0.3205 -0.1006
    4ALA    HB1   32  10.277   9.597  14.292  0.3546 -0.4610  0.3693
    4ALA    HB2   33  10.372   9.732  14.244  2.3358 -0.7296  0.5860
    4ALA    HB3   34  10.315   9.620  14.124 -0.2910  0.5123 -0.0712
    4ALA      C   35  10.456   9.382  14.246 -0.3277 -1.2069 -0.4097
    4ALA      O   36  10.375   9.330  14.318 -0.3572  0.0059  0.0075
    5NME      N   37  10.521   9.314  14.153  0.0875  0.7589  0.0720
    5NME      H   38  10.565   9.371  14.082  0.2781  1.0131  0.3925
    5NME    CH3   39  10.507   9.164  14.145  0.0391 -0.1607  0.7841
    5NME   HH31   40  10.527   9.140  14.040  1.8608  0.8228  0.8539
    5NME   HH32   41  10.587   9.123  14.207  0.7408 -0.0027  0.0060
    5NME   HH33   42  10.410   9.131  14.181 -0.8665  0.5031 -0.8896
  20.91516  20.91516  20.91516
