Protein
   32
    1ACE   HH31    1   7.755  11.677   8.225  2.8953  0.3518 -0.3255
    1ACE    CH3    2   7.765  11.583   8.171  0.1203 -0.0451 -0.2542
    1ACE   HH32    3   7.846  11.592   8.098  0.8263 -0.5655  0.4542
    1ACE   HH33    4   7.668  11.563   8.124 -1.0809  2.1712  1.1514
    1ACE      C    5   7.789  11.476   8.272  0.8453 -0.7803  0.1894
    1ACE      O    6   7.701  11.462   8.362 -0.0450  0.3164  0.4224
    2ALA      N    7   7.908  11.422   8.270  0.0729  0.1932  0.4725
    2ALA      H    8   7.957  11.434   8.182 -0.1686  2.9614  0.5980
    2ALA     CA    9   7.957  11.334   8.375  1.1611  0.7781 -0.3549
    2ALA     HA   10   7.883  11.330   8.454  1.4483  0.1093 -0.1039
    2ALA     CB   11   7.970  11.179   8.332  0.1305  0.5720  0.1598
    2ALA    HB1   12   8.036  11.169   8.246 -0.9371  0.0393 -0.6054
    2ALA    HB2   13   8.010  11.115   8.411  0.2729  0.0747 -0.3097
    2ALA    HB3   14   7.877  11.133   8.301  0.5512  0.2993 -0.7215
    2ALA      C   15   8.087  11.384   8.439 -0.7959  0.0700 -0.2939
    2ALA      O   16   8.094  11.430   8.557  0.2250 -0.6776  0.5986
    3ALA      N   17   8.197  11.386   8.360 -0.5856 -0.0359 -0.4176
    3ALA      H   18   8.182  11.374   8.261 -0.6914 -2.3249 -0.1692
    3ALA     CA   19   8.337  11.395   8.408 -0.5372 -1.0601  0.6063
    3ALA     HA   20   8.398  11.365   8.323 -0.2378  1.5386 -0.2047
    3ALA     CB   21   8.369  11.549   8.423  0.4319  0.1524  0.4630
    3ALA    HB1   22   8.477  11.558   8.428  0.2659  1.8787  1.4522
    3ALA    HB2   23   8.343  11.599   8.329  0.3848  1.2321  1.0318
    3ALA    HB3   24   8.340  11.599   8.516  2.1329  1.7407  0.1972
    3ALA      C   25   8.393  11.317   8.524  0.8087 -0.1534  0.2800
    3ALA      O   26   8.507  11.266   8.513 -0.4616  0.2837 -0.1410
    4NME      N   27   8.321  11.308   8.638 -0.2245 -0.8896  0.0262
    4NME      H   28   8.226  11.344   8.638  0.0583 -0.1153 -0.6136
    4NME    CH3   29   8.375  11.245   8.757  0.3327 -0.6680 -0.6372
    4NME   HH31   30   8.484  11.243   8.753  0.3224 -0.2375 -2.4405
    4NME   HH32   31   8.340  11.297   8.846 -0.3245 -1.1279 -0.6276
    4NME   HH33   32   8.338  11.143   8.761 -0.0952 -0.5967 -2.2696
  20.99041  20.99041  20.99041
