Protein
   32
    1ACE   HH31    1   8.416   7.949  11.529  0.7116 -2.2403  2.3766
    1ACE    CH3    2   8.513   7.997  11.512 -0.9418  0.5727  0.0265
    1ACE   HH32    3   8.546   7.995  11.408 -1.5878  0.1736 -0.1821
    1ACE   HH33    4   8.578   7.946  11.582  0.1667 -1.7516 -2.4911
    1ACE      C    5   8.497   8.139  11.561  0.6239  0.5036 -0.4621
    1ACE      O    6   8.386   8.193  11.559 -0.3246  0.4743  0.3093
    2ALA      N    7   8.608   8.199  11.602 -0.0599  0.1449  0.0403
    2ALA      H    8   8.694   8.146  11.593  1.3334  2.2508  0.0403
    2ALA     CA    9   8.641   8.331  11.666  0.7375 -0.0308  0.4696
    2ALA     HA   10   8.606   8.420  11.613  2.1096 -0.5241 -1.3534
    2ALA     CB   11   8.575   8.324  11.800  0.5358  0.2247 -0.0864
    2ALA    HB1   12   8.469   8.299  11.798  0.2368  1.0675  2.5632
    2ALA    HB2   13   8.624   8.253  11.866  2.1277  1.2706 -0.0652
    2ALA    HB3   14   8.588   8.422  11.847  0.3404  0.9361 -1.4434
    2ALA      C   15   8.792   8.349  11.691 -0.0873  0.0314  0.1597
    2ALA      O   16   8.865   8.250  11.702 -0.7581  0.4341  0.0466
    3ALA      N   17   8.835   8.474  11.716 -0.3955 -0.1933 -0.0519
    3ALA      H   18   8.773   8.551  11.731  2.4497  2.9849 -2.8847
    3ALA     CA   19   8.965   8.506  11.771  0.2652 -0.2211 -0.4859
    3ALA     HA   20   9.047   8.490  11.701  1.2739  2.4139 -0.0077
    3ALA     CB   21   8.984   8.653  11.784  0.2568 -0.8831  0.3020
    3ALA    HB1   22   9.083   8.679  11.822 -0.4715 -0.9679  2.3682
    3ALA    HB2   23   8.973   8.711  11.692 -1.0693  1.9578  2.1325
    3ALA    HB3   24   8.905   8.683  11.852 -0.7475 -1.0783 -0.7417
    3ALA      C   25   8.991   8.431  11.907  0.4447  0.1111  0.1792
    3ALA      O   26   8.970   8.486  12.015  0.2403 -0.0682 -0.4479
    4NME      N   27   9.039   8.310  11.902 -0.3095 -0.2326 -0.5340
    4NME      H   28   9.063   8.276  11.810 -0.7932  1.7346 -1.4446
    4NME    CH3   29   9.058   8.229  12.025  0.5166 -0.7097  0.2154
    4NME   HH31   30   8.979   8.255  12.096  2.3829  0.9221  1.8206
    4NME   HH32   31   9.062   8.127  11.987  2.2451 -0.0166 -1.6796
    4NME   HH33   32   9.156   8.259  12.063  0.4982 -0.5200  0.1185
  20.99041  20.99041  20.99041
