Protein
   32
    1ACE   HH31    1  12.056  12.831  11.320  1.2065  0.4519 -0.3252
    1ACE    CH3    2  12.074  12.929  11.275  0.0575  0.5512 -0.5933
    1ACE   HH32    3  12.012  13.006  11.321 -0.6788  1.1803 -2.5323
    1ACE   HH33    4  12.044  12.928  11.170 -0.3533  0.1852 -0.4736
    1ACE      C    5  12.224  12.969  11.285 -0.2949  0.1110 -0.0078
    1ACE      O    6  12.308  12.936  11.202  0.6518 -0.4541  0.1956
    2ALA      N    7  12.248  13.048  11.390 -0.3021  0.2920 -0.3762
    2ALA      H    8  12.178  13.078  11.456  1.1433  1.8522  0.4977
    2ALA     CA    9  12.380  13.100  11.418 -0.2400  0.0210  0.1295
    2ALA     HA   10  12.425  13.146  11.329  2.4269  0.8308  1.7885
    2ALA     CB   11  12.370  13.212  11.521 -0.3611 -0.4514 -0.0978
    2ALA    HB1   12  12.463  13.262  11.548 -0.5121 -0.1517 -0.1166
    2ALA    HB2   13  12.303  13.294  11.494  1.6717  0.5300 -2.6603
    2ALA    HB3   14  12.333  13.172  11.615  1.5664 -0.0944  0.8585
    2ALA      C   15  12.475  12.983  11.471  0.0940 -0.1258 -0.2289
    2ALA      O   16  12.550  13.002  11.564 -0.0247 -0.6843  0.0389
    3ALA      N   17  12.479  12.867  11.406  0.1456  0.1869 -0.0135
    3ALA      H   18  12.427  12.870  11.319  3.2150  1.6036 -1.9695
    3ALA     CA   19  12.533  12.733  11.449 -0.3004 -0.4934  0.0777
    3ALA     HA   20  12.451  12.662  11.463  0.0930 -0.7081  1.5252
    3ALA     CB   21  12.630  12.684  11.338 -1.0585  0.0279  0.2201
    3ALA    HB1   22  12.571  12.669  11.248 -3.2450  0.0995  1.5485
    3ALA    HB2   23  12.704  12.763  11.320 -0.2532 -1.4803 -4.3190
    3ALA    HB3   24  12.691  12.598  11.366 -1.0426 -0.0620 -0.0871
    3ALA      C   25  12.604  12.724  11.590  0.4351 -0.0131 -0.0232
    3ALA      O   26  12.557  12.653  11.675  0.7638  0.7538  0.2616
    4NME      N   27  12.716  12.794  11.600 -0.2044  0.3873 -0.4013
    4NME      H   28  12.736  12.852  11.519 -0.4756  0.6529 -0.2759
    4NME    CH3   29  12.790  12.797  11.731  0.5881 -0.1833 -0.1764
    4NME   HH31   30  12.897  12.785  11.715  1.1066  3.3109 -0.1079
    4NME   HH32   31  12.758  12.885  11.787 -1.2364 -0.5834 -0.4834
    4NME   HH33   32  12.767  12.707  11.788  0.9153  1.8144  3.3255
  20.99041  20.99041  20.99041
