Protein
   32
    1ACE   HH31    1  10.195  11.499   7.510 -1.0598 -2.3249  1.1516
    1ACE    CH3    2  10.198  11.439   7.419  0.3545 -0.5644 -0.0413
    1ACE   HH32    3  10.214  11.512   7.339  0.8189 -0.2004  0.3727
    1ACE   HH33    4  10.111  11.377   7.401  0.0462  0.1418 -1.0716
    1ACE      C    5  10.310  11.345   7.440 -0.3445 -0.6495  0.4947
    1ACE      O    6  10.360  11.335   7.549  0.2889 -0.2734 -0.2254
    2ALA      N    7  10.358  11.277   7.331 -0.0361  0.0076 -0.9370
    2ALA      H    8  10.325  11.297   7.238  0.5254  0.6205 -1.0110
    2ALA     CA    9  10.482  11.199   7.337  0.0683  0.1289 -0.2022
    2ALA     HA   10  10.466  11.120   7.410  1.1845 -0.6695 -0.7902
    2ALA     CB   11  10.502  11.111   7.209  0.1269 -0.8732 -0.5173
    2ALA    HB1   12  10.528  11.176   7.126 -0.4543  1.1945  0.8667
    2ALA    HB2   13  10.579  11.036   7.228 -0.6898 -1.4766  0.4611
    2ALA    HB3   14  10.408  11.062   7.181  1.1407 -2.0170 -2.1624
    2ALA      C   15  10.602  11.284   7.374  0.4438  0.3347  0.5731
    2ALA      O   16  10.622  11.395   7.327  0.2783 -0.5295  0.0855
    3ALA      N   17  10.693  11.219   7.451 -0.0145  0.6921  0.3875
    3ALA      H   18  10.674  11.123   7.476  0.8253  0.0765 -1.1992
    3ALA     CA   19  10.833  11.262   7.495  0.1313  0.6284 -0.3899
    3ALA     HA   20  10.805  11.353   7.548 -4.9254 -0.8054 -0.1659
    3ALA     CB   21  10.890  11.147   7.594  0.3673 -1.0561 -0.0797
    3ALA    HB1   22  10.990  11.183   7.613 -0.0085  1.7786 -2.7617
    3ALA    HB2   23  10.833  11.142   7.686  0.4107 -0.7259 -0.0315
    3ALA    HB3   24  10.893  11.047   7.548  1.5190 -2.9203  3.6566
    3ALA      C   25  10.938  11.302   7.389 -0.2021  0.4163 -0.1051
    3ALA      O   26  11.040  11.236   7.373 -0.1213  0.1989  0.0983
    4NME      N   27  10.903  11.405   7.308  0.0322  0.3169 -0.0624
    4NME      H   28  10.819  11.455   7.330 -0.8642 -0.4715 -1.5538
    4NME    CH3   29  10.993  11.451   7.200  0.1288 -0.0329 -0.9180
    4NME   HH31   30  11.098  11.443   7.228  0.0201  2.1213  0.3095
    4NME   HH32   31  10.973  11.427   7.095  0.2685  0.6399 -1.0980
    4NME   HH33   32  10.979  11.558   7.186  0.3781  0.0423 -0.6057
  20.99041  20.99041  20.99041
