Protein
   32
    1ACE   HH31    1  10.800  15.380  11.254  0.5765  0.1470  0.5904
    1ACE    CH3    2  10.722  15.445  11.214 -0.0889 -1.0194 -0.0461
    1ACE   HH32    3  10.679  15.494  11.301  1.2007 -0.1515  0.1410
    1ACE   HH33    4  10.640  15.389  11.170  0.0804 -0.9142 -0.4973
    1ACE      C    5  10.781  15.542  11.118 -0.9647  0.0309  0.3085
    1ACE      O    6  10.907  15.540  11.100  0.1299 -0.3862  0.4377
    2ALA      N    7  10.698  15.619  11.051 -0.1732 -0.5530  0.7503
    2ALA      H    8  10.599  15.602  11.062 -0.7580  1.2143 -1.1596
    2ALA     CA    9  10.734  15.724  10.953 -0.3467  0.6096  0.1981
    2ALA     HA   10  10.826  15.771  10.987  0.3953 -0.2815 -0.5171
    2ALA     CB   11  10.765  15.651  10.813 -0.0961  0.7615  0.7273
    2ALA    HB1   12  10.835  15.711  10.756 -0.3486  0.8079  0.4613
    2ALA    HB2   13  10.814  15.555  10.831 -0.9639 -0.2523 -1.7366
    2ALA    HB3   14  10.675  15.633  10.754  0.4106  0.0917  0.1405
    2ALA      C   15  10.634  15.841  10.937 -0.4463  0.7206  0.9345
    2ALA      O   16  10.514  15.836  10.974 -0.9221  0.2095  0.2308
    3ALA      N   17  10.684  15.949  10.880 -0.0312  0.4549  0.1916
    3ALA      H   18  10.780  15.946  10.850 -0.1895 -1.3843 -0.3066
    3ALA     CA   19  10.608  16.053  10.813  0.2236 -0.2579 -0.6487
    3ALA     HA   20  10.520  16.064  10.876 -0.8322 -2.5771 -1.6205
    3ALA     CB   21  10.702  16.177  10.804  0.3772  0.2357 -0.1313
    3ALA    HB1   22  10.651  16.267  10.770  0.4444  0.5944  0.6692
    3ALA    HB2   23  10.744  16.206  10.900 -0.8535  0.2938  0.4141
    3ALA    HB3   24  10.787  16.151  10.740 -1.1707 -2.3120 -1.2991
    3ALA      C   25  10.555  15.997  10.677 -0.3515  0.1398 -0.3692
    3ALA      O   26  10.622  15.908  10.624 -0.0917  0.3752 -0.0165
    4NME      N   27  10.441  16.054  10.627 -0.4591  0.2296 -0.5135
    4NME      H   28  10.407  16.120  10.695 -1.8548 -0.7562 -0.2042
    4NME    CH3   29  10.375  16.033  10.498  0.2419  0.4432 -0.4562
    4NME   HH31   30  10.390  16.127  10.445 -0.4417  2.0207  1.9561
    4NME   HH32   31  10.425  15.946  10.456  1.9515  0.5815  1.2033
    4NME   HH33   32  10.267  16.019  10.496  0.4239 -1.3846 -2.7464
  20.99041  20.99041  20.99041
