Protein
   42
    1ACE   HH31    1   3.814  12.444  12.961 -0.4456 -1.2107 -1.3841
    1ACE    CH3    2   3.922  12.442  12.951 -0.1343  0.0531  1.0575
    1ACE   HH32    3   3.970  12.532  12.990  0.2497  1.5833 -2.5550
    1ACE   HH33    4   3.953  12.425  12.848 -1.0188  0.6425  0.6852
    1ACE      C    5   3.975  12.330  13.037  0.0331  0.6872  0.5807
    1ACE      O    6   4.032  12.350  13.148 -0.1226  0.0726  0.1864
    2ALA      N    7   3.938  12.204  13.005 -0.2164  0.1352 -0.3177
    2ALA      H    8   3.876  12.188  12.927  0.1320 -1.9206 -0.2249
    2ALA     CA    9   3.979  12.079  13.070  0.5395  0.5095  0.7546
    2ALA     HA   10   3.923  12.069  13.163 -0.4546 -1.9487 -0.0235
    2ALA     CB   11   3.929  11.965  12.977 -0.0234  0.4691 -0.1294
    2ALA    HB1   12   3.821  11.955  12.983 -0.0601  1.4503  1.3712
    2ALA    HB2   13   3.965  11.981  12.875  0.5891 -0.1338 -0.0153
    2ALA    HB3   14   3.961  11.865  13.007  1.0411  0.8368  0.0145
    2ALA      C   15   4.131  12.080  13.095 -0.3428  0.6984 -0.0380
    2ALA      O   16   4.210  12.071  12.999  0.1799  0.4860 -0.5433
    3ALA      N   17   4.190  12.080  13.217  0.1581  0.8414 -0.2863
    3ALA      H   18   4.291  12.075  13.212  0.1831  0.4297  0.5709
    3ALA     CA   19   4.127  12.043  13.341  1.0472  0.5007 -0.1206
    3ALA     HA   20   4.071  11.952  13.319  2.4406 -0.0973 -1.4798
    3ALA     CB   21   4.238  11.993  13.434  0.9145  0.6776 -0.2947
    3ALA    HB1   22   4.289  11.915  13.377  2.0774  1.2256 -0.0287
    3ALA    HB2   23   4.309  12.065  13.474 -1.2913  1.4207  2.6789
    3ALA    HB3   24   4.207  11.945  13.527  1.0035 -2.5924 -1.8122
    3ALA      C   25   4.028  12.141  13.400  0.0350  0.0005 -0.6159
    3ALA      O   26   3.911  12.117  13.402 -0.1000  0.0879  0.4141
    4ALA      N   27   4.082  12.240  13.471 -0.3723 -0.5894 -0.2045
    4ALA      H   28   4.182  12.244  13.467 -0.3440 -1.5473 -0.7293
    4ALA     CA   29   4.013  12.324  13.565 -0.1320  0.2453 -0.2922
    4ALA     HA   30   3.924  12.268  13.596  0.3012  0.0173  0.5530
    4ALA     CB   31   4.107  12.339  13.689  0.5577 -0.6428  0.7715
    4ALA    HB1   32   4.145  12.241  13.721 -0.2710 -1.1240  0.3169
    4ALA    HB2   33   4.195  12.396  13.657 -0.4767  1.7237  1.9393
    4ALA    HB3   34   4.062  12.384  13.777  1.1826 -2.3619  2.0386
    4ALA      C   35   3.962  12.462  13.521  0.4380 -0.1151  0.3703
    4ALA      O   36   3.934  12.550  13.602 -0.0360  0.0613  0.0066
    5NME      N   37   3.942  12.479  13.388  0.4471  0.2808  0.2422
    5NME      H   38   3.962  12.402  13.327 -0.6473 -0.2460  0.5243
    5NME    CH3   39   3.909  12.604  13.325  0.7308 -0.4838  0.5759
    5NME   HH31   40   3.984  12.681  13.342  0.4393 -0.3012  1.0930
    5NME   HH32   41   3.889  12.580  13.221 -2.7898  0.0521  1.0049
    5NME   HH33   42   3.816  12.648  13.362  1.2087  1.2965 -0.2165
  20.91516  20.91516  20.91516
