<<<<<<< HEAD
Protein
   42
    1ACE   HH31    1  10.537   4.585   6.319  1.6490  0.1799  0.6694
    1ACE    CH3    2  10.503   4.507   6.386  0.6394 -0.0822 -0.1252
    1ACE   HH32    3  10.404   4.469   6.360  0.6139 -1.0874  1.2681
    1ACE   HH33    4  10.497   4.544   6.488  1.9093  0.1872 -0.1257
    1ACE      C    5  10.595   4.387   6.370  0.6665  0.1245 -0.9196
    1ACE      O    6  10.670   4.381   6.276  0.1289 -0.3857  0.3503
    2ALA      N    7  10.574   4.280   6.447 -0.1657 -0.4645 -0.2046
    2ALA      H    8  10.500   4.285   6.515 -0.6683  1.2498 -0.8345
    2ALA     CA    9  10.660   4.158   6.437  0.4393 -1.0740 -0.0171
    2ALA     HA   10  10.641   4.106   6.530 -1.9369  0.8834  0.7412
    2ALA     CB   11  10.603   4.069   6.328  0.0236 -0.0641  0.1635
    2ALA    HB1   12  10.647   3.970   6.335  0.6190  0.1084 -1.0117
    2ALA    HB2   13  10.495   4.052   6.336 -0.1620  0.2455 -1.4405
    2ALA    HB3   14  10.636   4.104   6.230  0.3590 -2.3943 -0.6019
    2ALA      C   15  10.812   4.188   6.416  0.2183 -0.2327 -0.0798
    2ALA      O   16  10.879   4.111   6.342 -0.0446 -0.2280 -0.7909
    3ALA      N   17  10.869   4.288   6.487 -0.1867 -0.3438 -0.0543
    3ALA      H   18  10.812   4.339   6.552 -1.9755 -0.8085 -1.1878
    3ALA     CA   19  11.014   4.335   6.481  0.5188  0.2476 -0.0100
    3ALA     HA   20  11.005   4.443   6.487  0.4854  0.2050  0.9181
    3ALA     CB   21  11.089   4.274   6.603 -0.3059  0.3395  0.5823
    3ALA    HB1   22  11.095   4.166   6.589  0.0853  0.3579  0.5749
    3ALA    HB2   23  11.192   4.310   6.605  0.1663 -0.9542  0.9955
    3ALA    HB3   24  11.044   4.287   6.701 -1.7678  1.4428 -0.2150
    3ALA      C   25  11.088   4.312   6.347  0.5973 -0.4076 -0.2998
    3ALA      O   26  11.205   4.281   6.349  0.2848 -0.1080 -0.3702
    4ALA      N   27  11.023   4.329   6.232 -0.0371  0.0858  0.1721
    4ALA      H   28  10.923   4.317   6.234  0.3079 -4.5660  0.5051
    4ALA     CA   29  11.081   4.335   6.094  0.5311 -0.1287 -0.2006
    4ALA     HA   30  11.015   4.398   6.035  1.1779  0.5492 -0.2147
    4ALA     CB   31  11.213   4.418   6.078  0.0584  0.4802 -0.0022
    4ALA    HB1   32  11.214   4.460   5.977  0.3124  0.8587  0.1563
    4ALA    HB2   33  11.204   4.508   6.139 -1.1259 -0.2171  0.8799
    4ALA    HB3   34  11.306   4.366   6.101 -0.5793 -0.0881  1.3837
    4ALA      C   35  11.084   4.196   6.026  1.2456 -0.3812 -0.5707
    4ALA      O   36  11.090   4.188   5.906  0.5812 -0.2574 -0.5202
    5NME      N   37  11.082   4.090   6.102 -0.3292  0.7153 -0.7875
    5NME      H   38  11.097   4.100   6.201  0.9536 -2.0268 -0.6078
    5NME    CH3   39  11.089   3.951   6.042 -0.4833 -0.2181 -0.0395
    5NME   HH31   40  11.164   3.883   6.080 -0.2547 -1.2195 -2.1276
    5NME   HH32   41  10.994   3.905   6.068 -1.3960  2.1624  1.2176
    5NME   HH33   42  11.090   3.955   5.933 -0.6688  4.0791 -0.0688
  20.91516  20.91516  20.91516
=======
Protein
   42
    1ACE   HH31    1   5.509  18.507  10.839 -0.4462  2.1691  0.9340
    1ACE    CH3    2   5.489  18.481  10.943  0.4951  0.2297  0.6768
    1ACE   HH32    3   5.399  18.419  10.936  0.6041  0.2621 -2.3725
    1ACE   HH33    4   5.478  18.563  11.013 -0.5000 -0.0236  0.8373
    1ACE      C    5   5.597  18.386  10.986  0.4214 -0.0452 -0.3162
    1ACE      O    6   5.652  18.317  10.908  0.7950 -0.1798  0.5306
    2ALA      N    7   5.625  18.381  11.116  0.0683 -0.2448  0.8536
    2ALA      H    8   5.587  18.443  11.187  1.3282 -0.6737  1.9421
    2ALA     CA    9   5.740  18.313  11.170 -0.2713 -0.4552 -0.5298
    2ALA     HA   10   5.756  18.222  11.113 -0.8896 -0.1635 -1.1849
    2ALA     CB   11   5.869  18.399  11.161  0.8399 -0.1694  0.2814
    2ALA    HB1   12   5.852  18.495  11.211 -2.7847 -0.6882  0.2767
    2ALA    HB2   13   5.953  18.348  11.208  0.0886 -0.2618  1.5526
    2ALA    HB3   14   5.883  18.425  11.056 -0.9352  1.1212  0.3143
    2ALA      C   15   5.712  18.271  11.317 -0.3404 -0.5894 -0.0883
    2ALA      O   16   5.780  18.308  11.414  0.4673 -0.2819 -0.4932
    3ALA      N   17   5.597  18.202  11.339 -0.5771 -0.5476  0.1050
    3ALA      H   18   5.553  18.166  11.255  1.5136 -3.8963  0.2468
    3ALA     CA   19   5.527  18.157  11.460 -0.3262  0.5446  0.3160
    3ALA     HA   20   5.466  18.072  11.429  1.8764 -0.9434 -0.2516
    3ALA     CB   21   5.616  18.104  11.577 -0.2427 -0.4220  0.1660
    3ALA    HB1   22   5.557  18.058  11.657  1.4675 -0.2431  1.5900
    3ALA    HB2   23   5.692  18.035  11.541  3.1009  2.3042  1.4154
    3ALA    HB3   24   5.673  18.187  11.618  2.1282 -0.8589 -2.0526
    3ALA      C   25   5.423  18.264  11.487  0.0384  0.4766 -0.7234
    3ALA      O   26   5.303  18.239  11.476  1.0847 -0.3105  0.7629
    4ALA      N   27   5.465  18.394  11.517  0.0528  1.0415  0.3848
    4ALA      H   28   5.565  18.409  11.518 -0.0739  2.1816 -1.2774
    4ALA     CA   29   5.373  18.510  11.524 -0.1145 -0.3447  0.2201
    4ALA     HA   30   5.270  18.477  11.522 -0.3077  0.2195 -2.1703
    4ALA     CB   31   5.411  18.593  11.646 -0.7281 -0.6942  0.0338
    4ALA    HB1   32   5.514  18.628  11.640 -0.9671  0.3736  1.4476
    4ALA    HB2   33   5.342  18.671  11.678  0.8615  0.4854  0.7703
    4ALA    HB3   34   5.420  18.517  11.725  0.6279  1.5469  2.1984
    4ALA      C   35   5.394  18.597  11.397  1.0159  0.0282  0.4237
    4ALA      O   36   5.474  18.570  11.313  0.1514 -0.7976 -0.0020
    5NME      N   37   5.314  18.708  11.388 -0.1696 -0.3701  0.3691
    5NME      H   38   5.241  18.713  11.458  0.1265 -1.1435  0.7428
    5NME    CH3   39   5.319  18.806  11.277 -0.9519 -0.5830  0.7408
    5NME   HH31   40   5.344  18.907  11.310  0.1936 -0.6684  0.2156
    5NME   HH32   41   5.392  18.768  11.206 -0.1920  0.2922  1.0157
    5NME   HH33   42   5.228  18.818  11.218  0.3087  2.6550 -0.7925
  20.91516  20.91516  20.91516
>>>>>>> e505351e8895c44bcd67ad8436d05c0eaca14691
