Protein
   42
    1ACE   HH31    1  16.253  11.022  10.015 -1.6010 -1.2934  0.1649
    1ACE    CH3    2  16.198  11.088  10.083 -0.5433  0.3418 -0.4821
    1ACE   HH32    3  16.222  11.028  10.170  1.7192  0.1580 -1.1804
    1ACE   HH33    4  16.091  11.094  10.061 -0.6336  0.1489 -0.0928
    1ACE      C    5  16.269  11.217  10.101  0.4648 -0.8775  0.1908
    1ACE      O    6  16.320  11.279  10.007 -0.0757  0.2400  0.3066
    2ALA      N    7  16.275  11.265  10.225  0.3451 -0.0985  0.0697
    2ALA      H    8  16.243  11.197  10.293  0.3476 -0.6936 -0.5108
    2ALA     CA    9  16.329  11.390  10.273 -0.2868  0.4416 -0.9293
    2ALA     HA   10  16.316  11.378  10.381  0.0187  0.5343 -0.8809
    2ALA     CB   11  16.487  11.400  10.258 -0.3614 -0.0174  0.7832
    2ALA    HB1   12  16.526  11.327  10.328 -1.4324 -0.3716  1.0147
    2ALA    HB2   13  16.523  11.384  10.156 -0.8153 -1.6105  0.8548
    2ALA    HB3   14  16.515  11.500  10.292 -2.0720  0.2606  1.4560
    2ALA      C   15  16.247  11.511  10.230  0.4611  0.1587  0.7254
    2ALA      O   16  16.199  11.585  10.311 -0.5353 -0.2027 -0.3250
    3ALA      N   17  16.220  11.527  10.104  0.0818 -0.3536  0.2298
    3ALA      H   18  16.258  11.456  10.043 -0.0791  0.3405 -0.6848
    3ALA     CA   19  16.116  11.610  10.043 -0.2171 -0.0077  0.2648
    3ALA     HA   20  16.147  11.714  10.045 -1.7108  0.4793  2.5548
    3ALA     CB   21  16.110  11.564   9.900  0.0624  0.3623 -0.3518
    3ALA    HB1   22  16.110  11.455   9.892  2.5470  0.2035  0.6640
    3ALA    HB2   23  16.017  11.597   9.854  0.3113 -0.2203 -1.2884
    3ALA    HB3   24  16.192  11.608   9.844 -1.3425  2.8635 -0.5711
    3ALA      C   25  15.974  11.586  10.095  0.8178  0.2717 -0.3201
    3ALA      O   26  15.885  11.656  10.050  0.3917 -0.0158 -0.0972
    4ALA      N   27  15.950  11.494  10.188 -0.3389  0.1273  0.2595
    4ALA      H   28  16.033  11.456  10.232  0.1743  1.2698  0.3240
    4ALA     CA   29  15.828  11.419  10.226 -0.1060 -0.5977  0.2866
    4ALA     HA   30  15.778  11.467  10.310  1.8762  3.2583 -0.5035
    4ALA     CB   31  15.729  11.400  10.106 -0.2997  0.2702 -0.4283
    4ALA    HB1   32  15.780  11.343  10.028  1.5374  1.0722  0.1267
    4ALA    HB2   33  15.644  11.342  10.142  1.0301 -1.0884  0.7354
    4ALA    HB3   34  15.689  11.500  10.093  3.4951  2.5386  2.8958
    4ALA      C   35  15.873  11.286  10.282 -0.1505 -0.2719 -0.1218
    4ALA      O   36  15.988  11.249  10.267  0.2067  0.3165 -0.1367
    5NME      N   37  15.775  11.204  10.336  0.6700 -0.3932 -0.5588
    5NME      H   38  15.682  11.241  10.349  0.6789 -0.7327  0.5538
    5NME    CH3   39  15.810  11.068  10.380  0.4284  0.0257  0.3199
    5NME   HH31   40  15.907  11.036  10.341  0.7803  1.0524  0.3218
    5NME   HH32   41  15.809  11.065  10.489  0.9882  0.8213  0.3520
    5NME   HH33   42  15.730  11.001  10.348 -1.1878  2.0480 -0.1413
  20.91516  20.91516  20.91516
