Protein
   42
    1ACE   HH31    1   6.690   6.656  13.513  0.9477 -0.3121 -0.1495
    1ACE    CH3    2   6.689   6.569  13.446 -0.5018 -0.3896 -0.0622
    1ACE   HH32    3   6.770   6.566  13.374  1.1517 -1.1562  1.7188
    1ACE   HH33    4   6.599   6.583  13.387  0.0158  1.5059 -0.4658
    1ACE      C    5   6.669   6.441  13.522  0.2827  0.0296 -0.1608
    1ACE      O    6   6.695   6.334  13.466  0.5073 -0.8519  0.6857
    2ALA      N    7   6.617   6.442  13.645 -0.4902  0.2917 -0.2046
    2ALA      H    8   6.583   6.534  13.670 -2.5856 -0.6469  0.6633
    2ALA     CA    9   6.572   6.326  13.720  1.0108 -0.4816  0.3619
    2ALA     HA   10   6.530   6.253  13.651 -0.2327  1.2480 -0.7873
    2ALA     CB   11   6.696   6.258  13.789  0.2487  0.1736  0.0889
    2ALA    HB1   12   6.772   6.238  13.714 -1.1163  0.8794 -1.5813
    2ALA    HB2   13   6.739   6.314  13.872 -0.2690 -0.2792  0.6721
    2ALA    HB3   14   6.670   6.169  13.846 -0.5739 -0.2726 -0.9603
    2ALA      C   15   6.461   6.374  13.819  0.4659 -0.8769 -0.0906
    2ALA      O   16   6.395   6.479  13.799 -1.2586  0.2263  0.0046
    3ALA      N   17   6.422   6.298  13.927 -0.1305  1.1820  0.4614
    3ALA      H   18   6.470   6.210  13.941 -0.7100  0.5413 -1.2812
    3ALA     CA   19   6.289   6.308  14.006 -0.3418 -0.1753  0.1344
    3ALA     HA   20   6.292   6.224  14.075  2.6126 -0.0229  0.2799
    3ALA     CB   21   6.277   6.439  14.081  0.2766 -0.0728 -0.4559
    3ALA    HB1   22   6.259   6.526  14.017  1.7968 -0.6296 -1.7136
    3ALA    HB2   23   6.190   6.436  14.148  0.3175 -1.9943 -0.4367
    3ALA    HB3   24   6.373   6.440  14.132  0.4840 -0.0192 -0.8447
    3ALA      C   25   6.171   6.274  13.910  0.0040 -0.0900 -0.4376
    3ALA      O   26   6.096   6.181  13.945  0.2038  0.4416  0.1320
    4ALA      N   27   6.160   6.341  13.796 -0.0803  0.2798  0.0755
    4ALA      H   28   6.246   6.390  13.776  2.6499 -2.1771  4.3839
    4ALA     CA   29   6.046   6.347  13.705 -0.0117  0.3427 -0.1849
    4ALA     HA   30   6.068   6.442  13.657  0.8091 -0.7822 -2.2244
    4ALA     CB   31   6.064   6.242  13.594  0.0974  0.1869 -0.1990
    4ALA    HB1   32   5.984   6.267  13.525  1.2573  1.5044 -1.1173
    4ALA    HB2   33   6.159   6.266  13.545  0.0317 -0.1693 -0.4973
    4ALA    HB3   34   6.054   6.139  13.627 -0.9071  0.5044  0.5473
    4ALA      C   35   5.895   6.368  13.754 -0.5742 -0.4876  0.1884
    4ALA      O   36   5.823   6.451  13.692 -0.4955  0.0829 -0.1311
    5NME      N   37   5.862   6.297  13.861 -0.4026 -1.1817  0.1554
    5NME      H   38   5.944   6.260  13.908  1.3782  1.9630 -0.1915
    5NME    CH3   39   5.734   6.291  13.928 -0.9037  0.6362  0.2729
    5NME   HH31   40   5.746   6.255  14.030 -0.2355 -0.2154 -0.0946
    5NME   HH32   41   5.681   6.386  13.924 -1.3751  0.4093  0.8021
    5NME   HH33   42   5.671   6.223  13.871  0.4938  0.1109 -0.6862
  20.91516  20.91516  20.91516
