Protein
   42
    1ACE   HH31    1  12.349   7.494  16.699  0.8867  0.8924  1.2079
    1ACE    CH3    2  12.434   7.539  16.647  0.5182  0.8869  0.5733
    1ACE   HH32    3  12.419   7.514  16.542  1.3693  1.3004  0.3426
    1ACE   HH33    4  12.522   7.487  16.685 -0.0330  0.9451  2.0029
    1ACE      C    5  12.453   7.684  16.665  0.6423  0.3272  0.1559
    1ACE      O    6  12.376   7.748  16.741  0.4351 -0.0049  0.3302
    2ALA      N    7  12.553   7.742  16.605 -0.5203 -0.4494 -0.1824
    2ALA      H    8  12.600   7.680  16.541  0.7265  1.1462 -0.9006
    2ALA     CA    9  12.598   7.877  16.619  0.4501 -0.0579 -0.2437
    2ALA     HA   10  12.554   7.925  16.706  1.0642  2.0279 -1.0158
    2ALA     CB   11  12.750   7.879  16.643  0.4676 -0.2151  0.2009
    2ALA    HB1   12  12.771   7.827  16.737  0.8494  2.9266  2.0180
    2ALA    HB2   13  12.797   7.823  16.562 -0.9972 -2.1141  0.5822
    2ALA    HB3   14  12.787   7.981  16.650  1.5712 -0.6653  1.1731
    2ALA      C   15  12.554   7.949  16.492 -0.7595  0.0072 -0.1202
    2ALA      O   16  12.587   7.900  16.387 -0.4831  0.1550  0.6335
    3ALA      N   17  12.489   8.071  16.483  0.0884 -0.2222 -0.0482
    3ALA      H   18  12.471   8.104  16.389  0.6862  1.3906  0.3836
    3ALA     CA   19  12.417   8.143  16.586 -0.6116 -0.0649  0.2228
    3ALA     HA   20  12.362   8.220  16.532  2.9577  0.3918 -3.2005
    3ALA     CB   21  12.307   8.056  16.651  0.2730  0.1757 -0.5165
    3ALA    HB1   22  12.344   7.991  16.730  2.6637  0.5261 -1.2407
    3ALA    HB2   23  12.232   8.116  16.701  0.6307 -0.4832  0.8466
    3ALA    HB3   24  12.263   7.994  16.573 -0.2562  1.0192 -0.9010
    3ALA      C   25  12.505   8.226  16.672  0.4877 -0.7296 -0.0574
    3ALA      O   26  12.625   8.199  16.694 -0.2122 -0.0819  0.2700
    4ALA      N   27  12.452   8.337  16.723 -0.6316 -0.0954  0.3012
    4ALA      H   28  12.360   8.371  16.696 -0.2327  0.6241 -0.1771
    4ALA     CA   29  12.510   8.418  16.823  0.2802 -0.0389 -0.2484
    4ALA     HA   30  12.618   8.416  16.811  0.2495 -0.6557 -0.4643
    4ALA     CB   31  12.464   8.565  16.786  0.1843  0.1426  0.2614
    4ALA    HB1   32  12.359   8.578  16.813 -0.3600 -0.1898 -1.5403
    4ALA    HB2   33  12.530   8.636  16.835  0.2384 -1.1333  2.1538
    4ALA    HB3   34  12.478   8.582  16.679 -0.5212  1.6881  0.4063
    4ALA      C   35  12.466   8.365  16.965  0.1023 -0.5046  0.7896
    4ALA      O   36  12.362   8.398  17.014 -0.1893 -0.6457  0.0292
    5NME      N   37  12.551   8.277  17.023 -0.2677 -0.8210  0.1954
    5NME      H   38  12.638   8.245  16.984  0.0358 -1.3768  1.2749
    5NME    CH3   39  12.506   8.211  17.143  0.4272  0.0060 -0.5715
    5NME   HH31   40  12.447   8.283  17.200  2.2168  1.8944 -0.9703
    5NME   HH32   41  12.444   8.125  17.119 -0.1710  0.1994  0.2691
    5NME   HH33   42  12.596   8.170  17.190 -0.3948 -3.0827 -1.4861
  20.91516  20.91516  20.91516
