<<<<<<< HEAD
Protein
   42
    1ACE   HH31    1   7.312   9.122  15.356 -3.3421 -0.5398 -0.0696
    1ACE    CH3    2   7.312   9.101  15.463  0.5959 -0.1033  0.1669
    1ACE   HH32    3   7.221   9.143  15.506  0.8728 -0.5450  1.2290
    1ACE   HH33    4   7.398   9.137  15.519  0.5473 -3.0973  2.4293
    1ACE      C    5   7.306   8.949  15.480 -0.5079 -0.0357  0.0454
    1ACE      O    6   7.208   8.895  15.522  0.2298 -0.0185 -0.3438
    2ALA      N    7   7.416   8.885  15.463  0.7188  0.0520 -0.0178
    2ALA      H    8   7.500   8.938  15.447 -0.7362  1.8243 -2.6511
    2ALA     CA    9   7.436   8.741  15.480  0.1052  0.0144 -0.7843
    2ALA     HA   10   7.372   8.691  15.407 -1.3021  0.6592 -0.0319
    2ALA     CB   11   7.580   8.703  15.450  0.4377  0.3858 -0.1641
    2ALA    HB1   12   7.639   8.729  15.538 -0.0554 -1.4042  0.7403
    2ALA    HB2   13   7.577   8.595  15.437 -0.4168  0.3541  0.2655
    2ALA    HB3   14   7.612   8.760  15.362  0.4949  0.1726 -0.2807
    2ALA      C   15   7.401   8.699  15.620 -0.6557  0.5718  0.7915
    2ALA      O   16   7.466   8.736  15.718  0.5580  0.2482  0.9393
    3ALA      N   17   7.299   8.614  15.644  0.2526  0.0914  0.0257
    3ALA      H   18   7.289   8.584  15.740  1.1861 -0.4302 -0.0257
    3ALA     CA   19   7.201   8.557  15.554 -0.3724 -0.1957  0.5066
    3ALA     HA   20   7.171   8.641  15.492  0.4087 -0.0157  0.3694
    3ALA     CB   21   7.261   8.433  15.473  0.6804 -0.6459 -0.2033
    3ALA    HB1   22   7.331   8.458  15.394  1.2956  0.2713  0.6069
    3ALA    HB2   23   7.313   8.360  15.534 -1.0535 -0.9328  1.0060
    3ALA    HB3   24   7.176   8.378  15.431 -0.9053  0.8323  0.8730
    3ALA      C   25   7.075   8.518  15.633  0.4596 -0.3161  0.6702
    3ALA      O   26   7.062   8.401  15.663 -0.8007 -0.5487  0.4229
    4ALA      N   27   6.990   8.614  15.665  0.5332 -0.1043 -0.2769
    4ALA      H   28   7.012   8.697  15.612  0.0572  0.6511  0.6580
    4ALA     CA   29   6.854   8.611  15.721  0.2415  0.2725  0.1847
    4ALA     HA   30   6.867   8.632  15.827 -0.3014 -2.5885  0.8684
    4ALA     CB   31   6.780   8.728  15.658  0.0445 -0.2147 -0.2191
    4ALA    HB1   32   6.843   8.816  15.645 -0.2991  0.2059  0.8195
    4ALA    HB2   33   6.749   8.700  15.557 -1.2418  0.5427 -0.0609
    4ALA    HB3   34   6.683   8.743  15.705 -1.3493 -3.4367 -1.7499
    4ALA      C   35   6.777   8.484  15.715 -0.3032  0.4051  1.1978
    4ALA      O   36   6.674   8.479  15.649  0.0313 -0.1532 -0.3583
    5NME      N   37   6.816   8.373  15.786 -0.0994 -0.1115  0.1528
    5NME      H   38   6.904   8.383  15.835 -0.8963  0.1397  1.5795
    5NME    CH3   39   6.747   8.243  15.780 -0.3340  0.3261 -0.6449
    5NME   HH31   40   6.656   8.253  15.722 -0.9091 -1.6845 -0.1848
    5NME   HH32   41   6.820   8.166  15.752  1.3188  0.8964  1.8230
    5NME   HH33   42   6.725   8.213  15.883 -0.8776 -0.8037 -1.0699
  20.91516  20.91516  20.91516
=======
Protein
   42
    1ACE   HH31    1   9.058  14.246  10.551  0.6017  0.5806  1.7930
    1ACE    CH3    2   9.077  14.146  10.592  0.2913 -0.4221 -0.3307
    1ACE   HH32    3   9.056  14.150  10.699  0.3625 -0.0746 -0.3256
    1ACE   HH33    4   9.182  14.115  10.587  0.5986  0.4120  0.5235
    1ACE      C    5   8.988  14.048  10.521  0.0406  0.0524  0.0739
    1ACE      O    6   8.875  14.026  10.567  0.3337  0.0034 -0.1216
    2ALA      N    7   9.037  13.991  10.411  0.0361 -0.3068 -0.1826
    2ALA      H    8   9.121  14.027  10.369 -0.2140 -0.5331 -0.8985
    2ALA     CA    9   8.966  13.887  10.346  0.3143  0.2484 -0.2491
    2ALA     HA   10   8.869  13.932  10.325 -0.1536 -0.6620 -0.0687
    2ALA     CB   11   9.031  13.863  10.210 -0.4369  0.2643 -0.1589
    2ALA    HB1   12   9.035  13.960  10.161  1.3347  0.6395  0.6451
    2ALA    HB2   13   9.130  13.823  10.230 -1.2889 -2.7589 -1.3710
    2ALA    HB3   14   8.965  13.797  10.154  2.6243 -2.7864 -0.4262
    2ALA      C   15   8.963  13.755  10.428  0.6146  0.0238 -0.7306
    2ALA      O   16   9.070  13.710  10.473 -0.5373  0.0854  0.7007
    3ALA      N   17   8.847  13.697  10.462  0.1872 -0.5128 -1.0314
    3ALA      H   18   8.847  13.610  10.512  1.1319  0.1077  0.1185
    3ALA     CA   19   8.710  13.732  10.423 -0.6566  0.2298 -0.1094
    3ALA     HA   20   8.690  13.831  10.463 -0.4476 -0.5569  2.0874
    3ALA     CB   21   8.697  13.723  10.266 -0.4819 -0.2720  0.4967
    3ALA    HB1   22   8.761  13.642  10.233 -0.8654 -0.6338  0.6112
    3ALA    HB2   23   8.599  13.706  10.222 -0.1416  2.0386 -1.3507
    3ALA    HB3   24   8.724  13.821  10.229 -2.9377  0.0001 -0.8269
    3ALA      C   25   8.618  13.630  10.485 -0.4997  0.2071  0.6319
    3ALA      O   26   8.658  13.529  10.541 -0.3346 -0.4099 -0.5748
    4ALA      N   27   8.489  13.652  10.459 -0.2691  0.3705 -0.1048
    4ALA      H   28   8.475  13.740  10.411  1.1761  1.1137  0.7655
    4ALA     CA   29   8.371  13.568  10.498 -0.1333 -0.1933  0.7259
    4ALA     HA   30   8.295  13.614  10.435  0.2538 -0.5748 -0.0321
    4ALA     CB   31   8.388  13.428  10.444  0.6325 -0.0265 -0.7659
    4ALA    HB1   32   8.289  13.386  10.431  0.4691  0.5115 -1.2873
    4ALA    HB2   33   8.448  13.442  10.354  2.9586 -0.2509  0.6764
    4ALA    HB3   34   8.455  13.372  10.509 -0.0937 -0.8829 -0.7293
    4ALA      C   35   8.326  13.560  10.649 -0.5516 -0.2653  0.7541
    4ALA      O   36   8.210  13.579  10.669  0.7428  0.4000 -0.3663
    5NME      N   37   8.421  13.529  10.746 -0.2363  1.2087 -0.1086
    5NME      H   38   8.517  13.518  10.716 -0.0258  1.8246  0.3305
    5NME    CH3   39   8.397  13.522  10.883 -0.4149  0.6432  0.2467
    5NME   HH31   40   8.492  13.527  10.935  0.8498 -0.8576 -1.7851
    5NME   HH32   41   8.325  13.598  10.915 -0.5354  0.1818  1.1247
    5NME   HH33   42   8.357  13.421  10.899  2.4872 -0.3180  2.1794
  20.91516  20.91516  20.91516
>>>>>>> e505351e8895c44bcd67ad8436d05c0eaca14691
