Protein
   42
    1ACE   HH31    1   9.733   9.203  11.216  0.3706  0.9866 -0.9353
    1ACE    CH3    2   9.769   9.291  11.269  0.6535  0.4160 -0.1407
    1ACE   HH32    3   9.687   9.363  11.263  0.6913  0.3752 -1.7928
    1ACE   HH33    4   9.861   9.319  11.217  0.8766 -0.9174 -0.4960
    1ACE      C    5   9.793   9.262  11.409 -0.0732 -0.0508 -0.3142
    1ACE      O    6   9.903   9.284  11.458  0.6669 -0.5618 -0.5322
    2ALA      N    7   9.683   9.242  11.483 -0.0990  1.0122 -0.5625
    2ALA      H    8   9.594   9.224  11.438  0.3010 -2.4995 -0.2699
    2ALA     CA    9   9.689   9.212  11.626 -0.2103 -0.0275 -0.5298
    2ALA     HA   10   9.768   9.279  11.660  0.3320 -0.7848 -0.2541
    2ALA     CB   11   9.559   9.249  11.695  0.3022  0.2458  0.6099
    2ALA    HB1   12   9.519   9.339  11.650  2.4583  0.1860 -1.6588
    2ALA    HB2   13   9.488   9.166  11.700  2.0101 -1.1991  3.2905
    2ALA    HB3   14   9.577   9.267  11.801  1.1162 -3.0016  1.1498
    2ALA      C   15   9.737   9.069  11.658  0.1908  0.4775 -0.2318
    2ALA      O   16   9.681   8.964  11.618  0.5563 -0.3067 -0.0737
    3ALA      N   17   9.851   9.055  11.724 -0.3598  0.4828  0.3911
    3ALA      H   18   9.877   8.957  11.719  2.5137  1.2263 -1.0624
    3ALA     CA   19   9.952   9.142  11.784  0.7631  0.2904 -0.2753
    3ALA     HA   20   9.984   9.209  11.704  2.1658 -2.1194 -1.8921
    3ALA     CB   21   9.893   9.214  11.905 -0.4601 -0.0743  0.0462
    3ALA    HB1   22   9.943   9.196  12.000 -2.3946 -3.6226  0.5635
    3ALA    HB2   23   9.908   9.318  11.877 -0.8571 -0.6174 -2.3778
    3ALA    HB3   24   9.787   9.188  11.911  0.0454 -2.5888 -0.5802
    3ALA      C   25  10.077   9.068  11.830  0.2879 -0.3854  0.0573
    3ALA      O   26  10.184   9.097  11.772  0.0714  0.2515 -0.0184
    4ALA      N   27  10.071   8.982  11.935  0.3671 -0.3016 -1.2719
    4ALA      H   28   9.981   8.982  11.982 -0.1620  1.3991 -2.2235
    4ALA     CA   29  10.161   8.864  11.967 -0.2079  0.1545  0.2148
    4ALA     HA   30  10.102   8.796  12.028 -0.7710 -0.0542 -0.5525
    4ALA     CB   31  10.193   8.784  11.837  0.0459  0.7836 -1.1241
    4ALA    HB1   32  10.104   8.768  11.776  0.2407 -0.5606 -1.0824
    4ALA    HB2   33  10.271   8.830  11.777  0.5866  1.8908  0.3761
    4ALA    HB3   34  10.226   8.683  11.861  2.1944  0.6545 -4.0267
    4ALA      C   35  10.278   8.899  12.056 -1.1101  0.1998  0.3126
    4ALA      O   36  10.307   8.836  12.158 -0.2610  0.0958 -0.2670
    5NME      N   37  10.351   9.007  12.021  0.6066 -0.5696 -0.5572
    5NME      H   38  10.308   9.063  11.948  0.9984  0.1827 -0.2075
    5NME    CH3   39  10.455   9.058  12.109 -0.6344  0.3599 -0.1108
    5NME   HH31   40  10.508   9.140  12.060 -0.1761 -0.9718 -1.9678
    5NME   HH32   41  10.398   9.104  12.189  0.6271  0.5550  0.7055
    5NME   HH33   42  10.520   8.982  12.151  0.1121  1.2682  0.4262
  20.91516  20.91516  20.91516
