Protein
   42
    1ACE   HH31    1   7.357   5.417  12.749 -0.6733  1.8412 -0.2253
    1ACE    CH3    2   7.460   5.450  12.739 -0.1846  0.2654 -0.5983
    1ACE   HH32    3   7.471   5.557  12.751 -1.0329  0.6687 -2.9834
    1ACE   HH33    4   7.489   5.424  12.637 -0.2438  1.2340 -0.8689
    1ACE      C    5   7.544   5.372  12.842 -0.0322  0.1232  0.3798
    1ACE      O    6   7.524   5.254  12.868 -0.6093 -0.1403  0.1161
    2ALA      N    7   7.643   5.440  12.898  0.1842 -0.0146 -0.0120
    2ALA      H    8   7.669   5.532  12.867  1.3576 -0.5920 -0.8157
    2ALA     CA    9   7.735   5.383  12.997 -0.2930 -0.4250 -0.3312
    2ALA     HA   10   7.725   5.274  13.000  0.8758 -0.5154  1.8624
    2ALA     CB   11   7.878   5.408  12.943  0.5108  0.6674 -0.0692
    2ALA    HB1   12   7.897   5.371  12.843  1.7306  1.1095 -0.0181
    2ALA    HB2   13   7.893   5.516  12.942 -0.8351  0.8838  1.1416
    2ALA    HB3   14   7.937   5.364  13.024 -0.2597 -0.0830  0.1004
    2ALA      C   15   7.713   5.437  13.138 -0.1133 -0.3344  0.3055
    2ALA      O   16   7.715   5.561  13.158  0.0874 -0.1041 -0.0119
    3ALA      N   17   7.692   5.351  13.241  0.0944 -0.0710 -0.3299
    3ALA      H   18   7.685   5.396  13.331  0.2015 -0.6234 -0.0447
    3ALA     CA   19   7.636   5.213  13.242  0.5503 -0.5951  0.5170
    3ALA     HA   20   7.680   5.147  13.168 -0.0181  0.3129 -0.6560
    3ALA     CB   21   7.686   5.157  13.377  0.1892 -0.2392 -0.8809
    3ALA    HB1   22   7.781   5.111  13.349  1.7601  2.3940 -0.2000
    3ALA    HB2   23   7.705   5.225  13.459  2.9042 -2.0314  0.1231
    3ALA    HB3   24   7.629   5.074  13.419 -0.1481  1.7117  2.8831
    3ALA      C   25   7.485   5.212  13.235 -0.1213 -0.1400 -0.2961
    3ALA      O   26   7.414   5.245  13.332 -0.0416 -0.2446 -0.7793
    4ALA      N   27   7.422   5.185  13.121  0.0733 -0.1506 -0.6450
    4ALA      H   28   7.481   5.178  13.039  0.7539  0.3602 -0.2132
    4ALA     CA   29   7.283   5.143  13.120  1.3570 -0.9823  0.3692
    4ALA     HA   30   7.229   5.190  13.202 -0.5115  0.4354 -1.5284
    4ALA     CB   31   7.219   5.198  12.993  0.2622 -0.3238 -0.0355
    4ALA    HB1   32   7.204   5.306  12.993  0.4771 -0.2599 -1.8525
    4ALA    HB2   33   7.283   5.182  12.906  1.2808  2.8026  0.0423
    4ALA    HB3   34   7.124   5.146  12.979  0.5120 -1.3836  1.9003
    4ALA      C   35   7.273   4.986  13.122 -0.5436  0.5668  0.8154
    4ALA      O   36   7.373   4.918  13.089 -0.3225  0.5370  0.2552
    5NME      N   37   7.158   4.924  13.146 -0.2304  0.0638  0.3186
    5NME      H   38   7.081   4.988  13.157  0.9422  1.6961 -0.6674
    5NME    CH3   39   7.147   4.780  13.128 -0.1227  0.2235  0.5148
    5NME   HH31   40   7.215   4.728  13.194 -0.7626 -0.9056  0.3248
    5NME   HH32   41   7.047   4.759  13.166 -0.2437  0.8817  0.5724
    5NME   HH33   42   7.166   4.759  13.022 -1.7492 -0.2840  0.2871
  20.91516  20.91516  20.91516
