Protein
   22
    1ACE   HH31    1   3.581   2.530   8.755  2.2424 -0.1194 -2.1016
    1ACE    CH3    2   3.543   2.428   8.749  0.8425  0.1619  0.5249
    1ACE   HH32    3   3.447   2.420   8.698  1.3530  0.5400 -0.5306
    1ACE   HH33    4   3.542   2.378   8.846 -0.4639  0.9557  0.9604
    1ACE      C    5   3.640   2.352   8.657 -0.1243  0.7763  0.1351
    1ACE      O    6   3.727   2.278   8.705 -0.2723 -0.5534  0.0139
    2ALA      N    7   3.625   2.366   8.527 -0.0723  0.4793  0.2503
    2ALA      H    8   3.543   2.418   8.498 -1.5141 -1.5624  0.4284
    2ALA     CA    9   3.713   2.318   8.424 -0.0553 -0.6178  0.4771
    2ALA     HA   10   3.750   2.222   8.459  2.9669  0.4071  0.4292
    2ALA     CB   11   3.621   2.286   8.309 -0.4284 -0.0538  0.0391
    2ALA    HB1   12   3.554   2.367   8.282 -0.8409 -0.4213 -0.0827
    2ALA    HB2   13   3.682   2.255   8.224  0.9008 -1.0844  1.3013
    2ALA    HB3   14   3.551   2.207   8.337  1.2912 -1.1098  1.6360
    2ALA      C   15   3.827   2.410   8.387  0.0069  0.6504  0.1947
    2ALA      O   16   3.811   2.535   8.388 -0.1028  0.6852 -0.2589
    3NME      N   17   3.943   2.343   8.363  0.0617  0.0058  0.1629
    3NME      H   18   3.949   2.243   8.376  1.3298  0.1120  0.5008
    3NME    CH3   19   4.036   2.410   8.284 -0.7071  0.4482 -0.1581
    3NME   HH31   20   4.104   2.341   8.234 -0.9929  1.3896 -1.9397
    3NME   HH32   21   3.982   2.461   8.205  0.6636 -0.0933 -1.4857
    3NME   HH33   22   4.104   2.486   8.322  0.1347  0.6387 -1.9344
  10.72160  10.72160  10.72160
