Protein
   32
    1ACE   HH31    1  13.085   7.128  11.179  0.3066  0.9563  1.5057
    1ACE    CH3    2  13.064   7.037  11.235  0.0442  0.0251 -0.0324
    1ACE   HH32    3  12.992   6.968  11.192  1.4802 -1.4861 -0.1404
    1ACE   HH33    4  13.025   7.066  11.333  0.4918  0.8434 -0.0867
    1ACE      C    5  13.193   6.961  11.271 -0.0453  0.3367  0.5014
    1ACE      O    6  13.305   7.009  11.284 -0.3840 -0.3459  0.4670
    2ALA      N    7  13.170   6.829  11.291  0.3428 -0.2072 -0.1910
    2ALA      H    8  13.077   6.791  11.279  0.1524  0.1133  0.2195
    2ALA     CA    9  13.268   6.722  11.319  0.4620 -0.3021  0.3500
    2ALA     HA   10  13.211   6.630  11.335  3.6784 -2.8775 -1.4614
    2ALA     CB   11  13.376   6.694  11.212  0.1804  0.0728 -0.5470
    2ALA    HB1   12  13.448   6.620  11.245 -0.2514  0.1123  0.5212
    2ALA    HB2   13  13.324   6.662  11.122 -1.1401  4.6563 -1.7211
    2ALA    HB3   14  13.432   6.781  11.178  2.3898 -1.0177  0.1077
    2ALA      C   15  13.315   6.742  11.463 -0.2540  0.5617  0.1557
    2ALA      O   16  13.287   6.654  11.543 -0.4719 -0.1781 -0.3237
    3ALA      N   17  13.384   6.853  11.496 -0.2991 -0.1664  0.4467
    3ALA      H   18  13.379   6.927  11.427  0.8528  1.4449  2.0128
    3ALA     CA   19  13.432   6.882  11.627 -0.1377 -0.2446  0.3060
    3ALA     HA   20  13.482   6.792  11.663  1.7977  0.6128 -0.1332
    3ALA     CB   21  13.534   6.995  11.605  0.3710  1.1157 -0.0868
    3ALA    HB1   22  13.489   7.086  11.565 -0.7718  1.4848  1.8966
    3ALA    HB2   23  13.587   7.012  11.699  2.1326  2.3122 -1.2530
    3ALA    HB3   24  13.605   6.951  11.535 -2.3557 -1.6465 -1.3677
    3ALA      C   25  13.306   6.916  11.718  0.1054  0.2114  0.3823
    3ALA      O   26  13.239   7.015  11.688 -0.0712  0.3324  0.0871
    4NME      N   27  13.274   6.841  11.824 -0.5357 -0.9796  0.4339
    4NME      H   28  13.337   6.763  11.835  0.1096 -0.5214  0.0777
    4NME    CH3   29  13.159   6.869  11.915 -0.3647  0.0535 -0.6555
    4NME   HH31   30  13.114   6.772  11.934  0.6117 -0.3588 -0.3705
    4NME   HH32   31  13.199   6.914  12.006  0.1563 -0.1271 -0.7899
    4NME   HH33   32  13.095   6.942  11.866  2.7062  1.3802 -3.1138
  20.99041  20.99041  20.99041
