Protein
   42
    1ACE   HH31    1  17.814  13.238   7.390  0.1589  0.5708  0.3380
    1ACE    CH3    2  17.788  13.275   7.290  0.2721 -0.4704 -0.0864
    1ACE   HH32    3  17.734  13.203   7.228 -1.9679  1.2514 -0.2462
    1ACE   HH33    4  17.884  13.293   7.242  0.4483 -2.5228 -0.6088
    1ACE      C    5  17.714  13.405   7.307  0.1283  0.1073 -0.1989
    1ACE      O    6  17.785  13.508   7.302 -0.0295 -0.6397  0.1037
    2ALA      N    7  17.581  13.400   7.328  0.0149 -0.1486 -0.0764
    2ALA      H    8  17.535  13.311   7.328 -3.8903  1.6942  0.8672
    2ALA     CA    9  17.503  13.514   7.362  0.0927  0.7604  0.7471
    2ALA     HA   10  17.569  13.599   7.377  1.1472  0.0946 -0.0266
    2ALA     CB   11  17.419  13.549   7.239  0.3489  0.0756 -0.1510
    2ALA    HB1   12  17.360  13.638   7.262 -0.6509 -0.9498  1.4942
    2ALA    HB2   13  17.476  13.564   7.147  0.7603  0.1944  0.1210
    2ALA    HB3   14  17.341  13.475   7.222  0.2348  0.1528  0.0290
    2ALA      C   15  17.419  13.474   7.486 -0.4747 -0.5555 -0.5111
    2ALA      O   16  17.350  13.377   7.484  0.4297 -0.2077 -0.5192
    3ALA      N   17  17.410  13.543   7.595 -0.4366 -0.0468 -0.4318
    3ALA      H   18  17.342  13.497   7.655 -1.3011 -0.8512 -1.9804
    3ALA     CA   19  17.490  13.658   7.636 -0.3859 -0.8428 -0.5672
    3ALA     HA   20  17.455  13.673   7.739  1.0703 -0.8749 -0.0362
    3ALA     CB   21  17.639  13.615   7.651  0.4634 -0.4911 -0.4926
    3ALA    HB1   22  17.647  13.508   7.674  1.1578 -0.0526  1.4350
    3ALA    HB2   23  17.691  13.626   7.556  2.4671 -0.9445  0.4893
    3ALA    HB3   24  17.683  13.677   7.729 -3.8318  2.9703 -0.4697
    3ALA      C   25  17.460  13.788   7.562 -1.0853  0.0660 -0.2625
    3ALA      O   26  17.556  13.867   7.556  0.5692 -0.5246  0.1922
    4ALA      N   27  17.338  13.821   7.512  0.1434  0.1636 -0.6843
    4ALA      H   28  17.267  13.751   7.523  1.0939 -1.2488 -3.0610
    4ALA     CA   29  17.303  13.938   7.434 -0.4265 -0.1470  0.0615
    4ALA     HA   30  17.361  14.023   7.471  0.7700 -1.0339  0.2746
    4ALA     CB   31  17.335  13.922   7.285 -0.4441  0.7901 -1.2733
    4ALA    HB1   32  17.271  13.846   7.239 -2.3512  1.1980  0.5550
    4ALA    HB2   33  17.304  14.015   7.238 -1.1219  0.8265 -0.7607
    4ALA    HB3   34  17.442  13.914   7.267  0.3669  0.4544  2.7069
    4ALA      C   35  17.148  13.969   7.441  0.0628 -0.5976  0.8428
    4ALA      O   36  17.072  13.871   7.440 -0.0612 -0.4273 -0.5744
    5NME      N   37  17.112  14.100   7.453  0.9556 -0.7821 -0.6758
    5NME      H   38  17.181  14.172   7.440 -0.2441  0.4229 -0.6043
    5NME    CH3   39  16.980  14.144   7.489 -0.4102  0.0039 -0.8207
    5NME   HH31   40  16.984  14.251   7.468  0.9411  0.3010  0.6534
    5NME   HH32   41  16.900  14.089   7.440 -0.8578 -1.7624  1.7018
    5NME   HH33   42  16.967  14.126   7.596 -0.4198 -1.5456 -1.0635
  20.91516  20.91516  20.91516
