Protein
   42
    1ACE   HH31    1   3.020  12.355  14.957  1.7150  2.0545  1.2083
    1ACE    CH3    2   2.925  12.373  15.007  0.4434  0.2939 -0.4264
    1ACE   HH32    3   2.922  12.316  15.100 -1.8866  1.5862  0.3750
    1ACE   HH33    4   2.839  12.344  14.947 -0.3894 -2.2003  1.7683
    1ACE      C    5   2.909  12.521  15.038 -0.2134 -0.2487  0.9561
    1ACE      O    6   2.987  12.574  15.117  0.4827 -0.2822  0.1081
    2ALA      N    7   2.821  12.588  14.958 -0.2687 -0.0864  0.3758
    2ALA      H    8   2.794  12.537  14.875 -0.8762  1.0034 -0.1242
    2ALA     CA    9   2.782  12.734  14.958  0.7681  0.3018  0.2831
    2ALA     HA   10   2.703  12.755  15.031  0.8963  0.0464  0.4962
    2ALA     CB   11   2.906  12.825  14.986  0.7140  0.2461  0.7380
    2ALA    HB1   12   2.889  12.932  14.968  0.6113  0.0704 -0.2667
    2ALA    HB2   13   2.953  12.815  15.084 -0.9105  0.4316  1.5756
    2ALA    HB3   14   2.978  12.794  14.910 -0.1775 -3.4648  1.2426
    2ALA      C   15   2.721  12.759  14.815 -0.1077 -0.6637  0.1695
    2ALA      O   16   2.729  12.674  14.731 -0.3264  0.4789 -0.1271
    3ALA      N   17   2.670  12.879  14.781 -0.9486  0.6387  0.4943
    3ALA      H   18   2.634  12.877  14.686  1.2890 -3.2752 -0.5028
    3ALA     CA   19   2.649  13.002  14.857  0.2993 -0.1411  0.1868
    3ALA     HA   20   2.563  13.043  14.804 -0.3982  0.8386  1.9948
    3ALA     CB   21   2.595  12.985  15.002  0.1449  0.1560  0.1414
    3ALA    HB1   22   2.683  12.993  15.066  0.7240  2.4321 -0.8447
    3ALA    HB2   23   2.529  13.066  15.033  0.8600  0.6133  0.4839
    3ALA    HB3   24   2.539  12.892  15.009  1.5850 -1.0312 -2.4467
    3ALA      C   25   2.754  13.116  14.833  0.5479  0.0600  0.3882
    3ALA      O   26   2.757  13.217  14.900  0.2544 -0.1890 -0.0891
    4ALA      N   27   2.845  13.103  14.731 -0.0065  0.1096  0.3912
    4ALA      H   28   2.843  13.022  14.671  2.2372  1.9047 -2.3551
    4ALA     CA   29   2.950  13.204  14.697  0.4902  0.7017  0.3045
    4ALA     HA   30   2.942  13.290  14.764 -0.5438  0.1149  0.9780
    4ALA     CB   31   3.091  13.142  14.714  0.4053 -0.3975 -0.7273
    4ALA    HB1   32   3.122  13.068  14.640  1.7549 -0.0734 -0.5053
    4ALA    HB2   33   3.159  13.226  14.699  1.4720 -0.5314  2.5517
    4ALA    HB3   34   3.094  13.106  14.817 -0.8455  3.7491  0.9991
    4ALA      C   35   2.929  13.266  14.556 -0.8079  0.3538  0.3292
    4ALA      O   36   2.926  13.191  14.458  0.4169  0.5841  0.1780
    5NME      N   37   2.930  13.401  14.552 -0.0808  0.2681  0.2048
    5NME      H   38   2.948  13.448  14.640  1.3170 -0.3597  0.2812
    5NME    CH3   39   2.912  13.488  14.437 -0.4178  0.3541  0.1532
    5NME   HH31   40   2.883  13.585  14.478  0.6341 -0.3508  2.7858
    5NME   HH32   41   3.006  13.500  14.384  0.3736  0.6506  1.5841
    5NME   HH33   42   2.833  13.441  14.379  0.6719 -1.1564 -0.1604
  20.91516  20.91516  20.91516
