Protein
   42
    1ACE   HH31    1  15.945   7.783  12.329 -0.2365 -2.1177  1.5237
    1ACE    CH3    2  15.841   7.767  12.301 -0.0456 -0.0300 -0.6553
    1ACE   HH32    3  15.788   7.695  12.363 -2.2735  1.3947 -0.8120
    1ACE   HH33    4  15.825   7.737  12.197 -2.0647 -0.5963 -0.2336
    1ACE      C    5  15.755   7.890  12.322 -0.1775  0.1812 -0.6973
    1ACE      O    6  15.655   7.908  12.252 -0.9603 -0.3544  0.3722
    2ALA      N    7  15.793   7.974  12.425  0.1724  0.3762  0.3244
    2ALA      H    8  15.878   7.950  12.473 -1.1343 -3.2172  1.1601
    2ALA     CA    9  15.696   8.063  12.490 -0.2297  0.4854 -0.3955
    2ALA     HA   10  15.653   8.133  12.419  0.2410 -0.9721 -2.1934
    2ALA     CB   11  15.590   7.973  12.554 -0.2123  1.3548 -0.0659
    2ALA    HB1   12  15.535   7.933  12.469  0.7366  1.3096 -0.6632
    2ALA    HB2   13  15.636   7.898  12.617  0.9098  1.3816 -0.8358
    2ALA    HB3   14  15.522   8.032  12.617  0.6862  2.6334 -0.2624
    2ALA      C   15  15.771   8.137  12.603  0.3773 -0.1425  0.8184
    2ALA      O   16  15.857   8.082  12.668  0.2421 -0.1446  0.4965
    3ALA      N   17  15.757   8.271  12.622  0.2573 -0.1643 -0.7840
    3ALA      H   18  15.810   8.296  12.704  1.4917 -0.3667 -1.4921
    3ALA     CA   19  15.714   8.376  12.531 -0.1374 -0.1011  0.2971
    3ALA     HA   20  15.727   8.469  12.587 -1.4727 -0.1520  0.7080
    3ALA     CB   21  15.824   8.392  12.420  0.2120 -0.0099 -0.4381
    3ALA    HB1   22  15.832   8.301  12.361 -2.1472 -0.3458 -0.2990
    3ALA    HB2   23  15.806   8.475  12.351 -0.1017  0.7001  0.4715
    3ALA    HB3   24  15.921   8.409  12.468 -0.2016  0.3101  0.3026
    3ALA      C   25  15.568   8.382  12.478 -0.9490  0.1739 -0.2314
    3ALA      O   26  15.538   8.452  12.382  0.1325  0.6211 -0.0114
    4ALA      N   27  15.470   8.314  12.541 -0.0671  0.0283 -0.0017
    4ALA      H   28  15.498   8.257  12.620  1.6237 -1.6668 -1.7224
    4ALA     CA   29  15.326   8.311  12.507  0.2164 -0.0083 -0.4670
    4ALA     HA   30  15.312   8.393  12.437  2.3427  0.0704 -0.8409
    4ALA     CB   31  15.303   8.178  12.437  0.5120  0.5177 -0.0917
    4ALA    HB1   32  15.367   8.167  12.350 -2.0159 -0.8717 -1.9189
    4ALA    HB2   33  15.322   8.090  12.500 -2.5407  0.6612  1.2070
    4ALA    HB3   34  15.200   8.174  12.402 -0.0954  0.2731  1.6003
    4ALA      C   35  15.243   8.315  12.627 -0.1548  0.2983 -0.9531
    4ALA      O   36  15.295   8.307  12.735 -0.2977 -0.6161 -0.1822
    5NME      N   37  15.109   8.331  12.609  0.2058  0.0677 -0.3327
    5NME      H   38  15.079   8.361  12.517 -0.2924 -0.7854 -0.4598
    5NME    CH3   39  15.008   8.335  12.706  0.6130  0.0773 -0.0016
    5NME   HH31   40  15.040   8.387  12.795  1.2167 -0.9212  0.3826
    5NME   HH32   41  14.916   8.376  12.664  0.0257 -0.1902  1.0064
    5NME   HH33   42  14.978   8.232  12.729 -1.2795  0.2742 -1.3130
  20.91516  20.91516  20.91516
