<<<<<<< HEAD
Protein
   42
    1ACE   HH31    1   8.489  10.854   5.314  1.2884  0.0161 -0.1472
    1ACE    CH3    2   8.479  10.790   5.401  0.0960  0.1409 -0.1687
    1ACE   HH32    3   8.486  10.684   5.377 -2.0842 -0.1573  0.3175
    1ACE   HH33    4   8.384  10.802   5.453  0.6905  1.0604  0.7494
    1ACE      C    5   8.581  10.828   5.500 -0.2174  0.4229  0.5169
    1ACE      O    6   8.653  10.736   5.543 -1.0386  0.4629  0.0994
    2ALA      N    7   8.592  10.957   5.540 -0.0232 -0.1176 -0.2267
    2ALA      H    8   8.513  11.019   5.525 -2.8528 -2.8069  2.1548
    2ALA     CA    9   8.689  10.991   5.648 -0.5194 -0.2539 -0.1411
    2ALA     HA   10   8.784  10.941   5.630 -0.7033 -1.2769  1.4953
    2ALA     CB   11   8.723  11.142   5.633  0.3484 -0.0597  0.2807
    2ALA    HB1   12   8.754  11.176   5.534  1.8253  1.4155  1.1923
    2ALA    HB2   13   8.645  11.208   5.671 -0.1052 -0.9951  0.9972
    2ALA    HB3   14   8.807  11.167   5.698  0.1757  0.3868  0.3379
    2ALA      C   15   8.631  10.946   5.782  0.4498 -0.3493  0.1622
    2ALA      O   16   8.506  10.942   5.800  0.0615 -0.0825 -0.1260
    3ALA      N   17   8.710  10.934   5.890 -0.5921  0.3242  0.2938
    3ALA      H   18   8.663  10.895   5.971  1.2026 -1.8174  0.3967
    3ALA     CA   19   8.855  10.952   5.897 -0.9834  1.1312 -0.1003
    3ALA     HA   20   8.896  10.953   5.796  2.3000 -1.5570  1.0526
    3ALA     CB   21   8.885  11.085   5.961 -0.4662  0.5573 -0.1609
    3ALA    HB1   22   8.823  11.164   5.917 -1.0925 -0.0944 -0.4564
    3ALA    HB2   23   8.875  11.079   6.070  3.3509  0.6859  0.2915
    3ALA    HB3   24   8.989  11.111   5.942 -0.3458  0.2829  0.1241
    3ALA      C   25   8.928  10.837   5.973  0.3273 -0.0008  0.2501
    3ALA      O   26   9.037  10.798   5.928  0.0435  0.0195 -0.2983
    4ALA      N   27   8.877  10.785   6.088  0.1886  0.7145  0.2710
    4ALA      H   28   8.798  10.839   6.117  0.2153  1.5461 -1.0957
    4ALA     CA   29   8.910  10.672   6.184 -0.5239  0.1697  0.3801
    4ALA     HA   30   8.938  10.718   6.279  0.6925 -0.8441  0.5373
    4ALA     CB   31   8.784  10.589   6.211 -0.4261  0.1811  0.6347
    4ALA    HB1   32   8.761  10.525   6.126 -1.1696 -2.5360  2.7860
    4ALA    HB2   33   8.797  10.514   6.288 -1.1829 -2.9086 -2.0403
    4ALA    HB3   34   8.695  10.643   6.241 -0.6137  0.4246 -0.3027
    4ALA      C   35   9.033  10.568   6.166 -1.0660  0.6747  0.0234
    4ALA      O   36   9.034  10.455   6.220 -0.1824  0.1444  0.8213
    5NME      N   37   9.141  10.601   6.087 -0.9577 -0.0895 -0.2913
    5NME      H   38   9.139  10.687   6.035 -1.7015  0.7654  1.0925
    5NME    CH3   39   9.264  10.520   6.069  0.1986  0.6004 -0.2190
    5NME   HH31   40   9.252  10.421   6.111  0.2946  0.6458 -0.0847
    5NME   HH32   41   9.290  10.512   5.964  0.6557  0.5704 -0.1019
    5NME   HH33   42   9.343  10.568   6.127  0.1181 -1.6106  1.9274
  20.91516  20.91516  20.91516
=======
Protein
   42
    1ACE   HH31    1  15.546  12.629   8.916  3.5803  1.2396 -0.3529
    1ACE    CH3    2  15.563  12.601   9.020  0.7351 -0.0580 -0.1299
    1ACE   HH32    3  15.514  12.508   9.048  2.5359 -0.9384  0.2891
    1ACE   HH33    4  15.528  12.685   9.081  0.4234 -0.4398  0.2282
    1ACE      C    5  15.701  12.579   9.049 -0.1622 -0.1310  0.9024
    1ACE      O    6  15.775  12.555   8.949 -0.0467 -0.3548  0.0308
    2ALA      N    7  15.743  12.579   9.175 -0.0299  0.2764 -0.5745
    2ALA      H    8  15.674  12.610   9.242 -0.6844 -1.3597 -0.4564
    2ALA     CA    9  15.889  12.562   9.213  0.6341  0.9182 -0.0787
    2ALA     HA   10  15.885  12.554   9.321 -2.0281  0.6817 -0.1454
    2ALA     CB   11  15.948  12.420   9.179  0.4827  0.0211  0.4153
    2ALA    HB1   12  16.047  12.406   9.223  0.7771  2.0461  0.4712
    2ALA    HB2   13  15.881  12.337   9.202  2.9584 -1.6915  2.0563
    2ALA    HB3   14  15.965  12.416   9.071 -0.1947 -1.1231  0.3330
    2ALA      C   15  15.975  12.682   9.182  0.5066 -0.6786  0.4439
    2ALA      O   16  16.066  12.710   9.256 -0.6801  0.7897  0.0400
    3ALA      N   17  15.941  12.757   9.071  0.3930 -1.1065 -0.0530
    3ALA      H   18  15.863  12.737   9.011  0.6980  1.4935 -1.4729
    3ALA     CA   19  16.014  12.877   9.035 -0.0314  0.0859  0.1847
    3ALA     HA   20  16.112  12.874   9.084  1.0502 -0.8189 -1.9138
    3ALA     CB   21  16.034  12.875   8.884 -0.1022 -0.1629 -0.0167
    3ALA    HB1   22  16.071  12.779   8.849  1.6969  0.8086 -0.9677
    3ALA    HB2   23  15.939  12.885   8.832  0.3154 -2.4630 -1.3533
    3ALA    HB3   24  16.103  12.952   8.848  0.3348  0.4504  2.0304
    3ALA      C   25  15.941  13.003   9.077  0.7628  0.8641  0.0066
    3ALA      O   26  15.826  12.994   9.123  0.3525  0.1138 -0.4222
    4ALA      N   27  15.998  13.120   9.063  0.0277 -0.2135  0.1288
    4ALA      H   28  16.099  13.116   9.052 -0.1679 -1.1989 -1.6163
    4ALA     CA   29  15.928  13.248   9.051 -0.1146  0.1099 -0.5602
    4ALA     HA   30  16.015  13.313   9.036  1.6329 -1.3447  2.3694
    4ALA     CB   31  15.842  13.250   8.922  0.5217  0.1876 -0.2030
    4ALA    HB1   32  15.774  13.334   8.930  0.9583  0.5767 -0.5073
    4ALA    HB2   33  15.902  13.266   8.832  0.7963 -2.6746 -0.6319
    4ALA    HB3   34  15.785  13.157   8.931 -0.2849  0.4351 -2.4474
    4ALA      C   35  15.852  13.313   9.172 -0.2810 -0.2911  0.1462
    4ALA      O   36  15.811  13.432   9.181 -0.3935  0.7223  0.5521
    5NME      N   37  15.838  13.226   9.270 -0.2704 -0.5506  0.0918
    5NME      H   38  15.859  13.130   9.246 -1.1680 -1.5110  2.8445
    5NME    CH3   39  15.760  13.258   9.393  0.0028  0.7024  0.4166
    5NME   HH31   40  15.814  13.228   9.483 -2.1009 -1.8646  0.9552
    5NME   HH32   41  15.744  13.365   9.408 -0.6378  0.3414  2.5472
    5NME   HH33   42  15.670  13.197   9.391  1.1871 -1.1289  0.4364
  20.91516  20.91516  20.91516
>>>>>>> e505351e8895c44bcd67ad8436d05c0eaca14691
