Protein
   42
    1ACE   HH31    1  10.139   8.663   8.918  0.2165  0.5970 -0.1724
    1ACE    CH3    2  10.050   8.682   8.858  0.2258 -0.4302 -0.5153
    1ACE   HH32    3  10.021   8.585   8.817 -2.4200 -0.3635  0.9194
    1ACE   HH33    4  10.064   8.752   8.777 -2.4627  0.0350 -0.6730
    1ACE      C    5   9.937   8.738   8.938 -0.1651 -0.0626  0.5044
    1ACE      O    6   9.825   8.717   8.908 -0.0811 -0.3047 -0.2927
    2ALA      N    7   9.963   8.813   9.042  0.1379  0.1808 -0.0630
    2ALA      H    8  10.060   8.837   9.060 -0.0871  1.0091  0.0784
    2ALA     CA    9   9.869   8.892   9.115  0.2641  0.6530 -0.3848
    2ALA     HA   10   9.781   8.915   9.055 -2.4082 -3.7115  1.3933
    2ALA     CB   11   9.818   8.799   9.225  0.2722  0.0110 -0.5153
    2ALA    HB1   12   9.726   8.835   9.271  0.4931  0.7671 -0.6469
    2ALA    HB2   13   9.805   8.698   9.186  1.0658  0.2934 -1.5737
    2ALA    HB3   14   9.893   8.795   9.304  0.3156 -1.0762 -0.6070
    2ALA      C   15   9.923   9.020   9.177 -0.0944  0.1026 -0.0544
    2ALA      O   16  10.044   9.027   9.190  0.4990  0.0958 -0.0624
    3ALA      N   17   9.856   9.125   9.218  0.8150  1.3650  0.1975
    3ALA      H   18   9.916   9.193   9.262  0.1381  1.1450  1.5092
    3ALA     CA   19   9.718   9.155   9.194  0.4881  0.1738 -0.0627
    3ALA     HA   20   9.664   9.061   9.207  1.6430 -0.5730 -0.4636
    3ALA     CB   21   9.675   9.259   9.301  0.3507  0.5519  0.3624
    3ALA    HB1   22   9.578   9.299   9.273  0.3803 -0.4187 -1.2269
    3ALA    HB2   23   9.666   9.211   9.399  1.8439  3.3377  1.9791
    3ALA    HB3   24   9.746   9.341   9.302  0.6057  0.3696 -1.4519
    3ALA      C   25   9.681   9.183   9.053  0.3220 -0.3517  0.4471
    3ALA      O   26   9.738   9.258   8.974 -0.3642  0.1364  0.3965
    4ALA      N   27   9.584   9.106   9.000  0.2511  0.0427  0.0902
    4ALA      H   28   9.546   9.036   9.062 -0.9929 -0.1227 -0.8167
    4ALA     CA   29   9.538   9.109   8.855  1.0435 -0.3531 -0.0403
    4ALA     HA   30   9.465   9.029   8.854  0.0301  0.5315 -0.6438
    4ALA     CB   31   9.446   9.239   8.832  0.2847  0.5462  0.0796
    4ALA    HB1   32   9.511   9.321   8.803 -2.6662  3.6261  1.3321
    4ALA    HB2   33   9.371   9.219   8.755 -1.5708 -0.4454  2.0087
    4ALA    HB3   34   9.395   9.278   8.920  0.4004  1.1667 -0.1232
    4ALA      C   35   9.633   9.067   8.741  0.2251  0.7164 -0.0228
    4ALA      O   36   9.591   9.038   8.631 -0.1672 -0.2604  0.8397
    5NME      N   37   9.763   9.055   8.774  0.2354 -1.1085 -0.9129
    5NME      H   38   9.798   9.072   8.867  1.4646 -2.0586 -1.1753
    5NME    CH3   39   9.869   9.047   8.676  0.4816 -0.6716  0.0982
    5NME   HH31   40   9.964   9.062   8.728 -0.3969  0.8890  1.3490
    5NME   HH32   41   9.851   8.950   8.632  0.2950 -0.5151 -0.1795
    5NME   HH33   42   9.862   9.122   8.598  0.6649 -1.8156 -1.0402
  20.91516  20.91516  20.91516
