Protein
   42
    1ACE   HH31    1   9.728   8.024   8.180 -0.2518  0.6916 -0.1828
    1ACE    CH3    2   9.678   8.022   8.276 -0.0812 -0.5408 -0.1103
    1ACE   HH32    3   9.665   8.120   8.323  1.8929 -0.8465  1.1700
    1ACE   HH33    4   9.730   7.958   8.348 -0.1876 -0.8749 -0.3286
    1ACE      C    5   9.536   7.971   8.249  0.2304 -0.1498 -0.0705
    1ACE      O    6   9.443   8.049   8.236  0.1629 -0.3809 -0.5808
    2ALA      N    7   9.528   7.842   8.255 -0.3840  0.2470 -1.0416
    2ALA      H    8   9.618   7.804   8.280 -0.5524 -0.4031 -1.4206
    2ALA     CA    9   9.415   7.758   8.277 -0.1274  0.2306 -0.3428
    2ALA     HA   10   9.461   7.661   8.295 -0.9021  0.0299  0.6157
    2ALA     CB   11   9.349   7.789   8.413  0.2703 -0.1897 -0.2599
    2ALA    HB1   12   9.282   7.875   8.402  0.3778 -0.0955 -0.2226
    2ALA    HB2   13   9.285   7.704   8.433  1.6792 -1.0484  0.7981
    2ALA    HB3   14   9.423   7.800   8.493 -1.0780 -0.3918  1.0389
    2ALA      C   15   9.327   7.749   8.155 -0.8676  0.5535  0.7004
    2ALA      O   16   9.298   7.640   8.100  0.0305 -0.1007  0.3387
    3ALA      N   17   9.293   7.867   8.107  0.2882 -0.2626 -0.3022
    3ALA      H   18   9.319   7.947   8.163  1.5662 -0.8676 -0.0047
    3ALA     CA   19   9.210   7.899   7.986 -0.0150 -0.0322 -0.2230
    3ALA     HA   20   9.134   7.971   8.016 -1.4709 -2.3517  1.9932
    3ALA     CB   21   9.285   7.986   7.878  0.3972 -0.4789 -0.7632
    3ALA    HB1   22   9.220   7.996   7.791 -0.8366  1.5821  0.3170
    3ALA    HB2   23   9.311   8.085   7.915 -1.6802  0.8292 -2.5475
    3ALA    HB3   24   9.372   7.928   7.846 -2.0418 -3.5027 -2.3974
    3ALA      C   25   9.132   7.782   7.920 -0.4140  0.0149  0.0708
    3ALA      O   26   9.010   7.769   7.943 -0.0996 -0.5068 -0.0666
    4ALA      N   27   9.193   7.707   7.823  0.0201  0.5741 -0.1978
    4ALA      H   28   9.293   7.713   7.822  0.0712  0.4562  1.1506
    4ALA     CA   29   9.142   7.602   7.746 -0.9019 -0.2754 -0.5745
    4ALA     HA   30   9.054   7.640   7.695 -1.7811 -0.0092  1.0718
    4ALA     CB   31   9.256   7.563   7.650  0.2727 -0.3030 -0.6124
    4ALA    HB1   32   9.358   7.559   7.688  0.1832  0.5112 -0.2594
    4ALA    HB2   33   9.223   7.477   7.591 -1.7294  0.3854 -0.5719
    4ALA    HB3   34   9.262   7.641   7.573 -0.6756  1.0544  0.6318
    4ALA      C   35   9.084   7.478   7.824  0.2711 -0.2146 -0.3670
    4ALA      O   36   9.032   7.388   7.762 -0.3647 -0.6601  0.6408
    5NME      N   37   9.098   7.472   7.961  0.7001 -0.2611  0.7553
    5NME      H   38   9.153   7.544   8.006  1.9010 -1.0188  0.5509
    5NME    CH3   39   9.027   7.378   8.042  0.1229 -0.1680 -0.1147
    5NME   HH31   40   9.029   7.285   7.986  1.3433  0.2319 -0.7467
    5NME   HH32   41   9.075   7.373   8.140 -0.8906  2.0319  0.5748
    5NME   HH33   42   8.922   7.408   8.038  0.3110  0.3440 -2.0838
  20.91516  20.91516  20.91516
