Protein
   42
    1ACE   HH31    1  15.462  15.095  12.596  0.2553  0.3598  0.4398
    1ACE    CH3    2  15.548  15.101  12.529  0.2793 -0.1491  0.4285
    1ACE   HH32    3  15.611  15.015  12.553 -1.3149 -1.0975  1.4078
    1ACE   HH33    4  15.598  15.196  12.546  1.3107 -0.8393  1.3901
    1ACE      C    5  15.493  15.073  12.390  0.9659 -0.7742  0.0704
    1ACE      O    6  15.504  14.964  12.334 -0.3042  0.5947 -0.1713
    2ALA      N    7  15.430  15.179  12.338 -0.4374  0.2646  0.0450
    2ALA      H    8  15.416  15.261  12.395 -1.5500  0.9239 -1.1285
    2ALA     CA    9  15.349  15.180  12.211 -0.6039  0.5902 -0.2141
    2ALA     HA   10  15.305  15.279  12.211 -1.2518  0.3179  0.9107
    2ALA     CB   11  15.445  15.179  12.087 -0.5582 -0.7382 -0.3761
    2ALA    HB1   12  15.389  15.226  12.007  0.9215 -0.3691 -1.2459
    2ALA    HB2   13  15.519  15.258  12.107  0.2868 -1.7637  0.6803
    2ALA    HB3   14  15.486  15.081  12.065  0.5660 -1.1761  3.0798
    2ALA      C   15  15.223  15.091  12.198  0.2393  0.2082  0.4607
    2ALA      O   16  15.115  15.129  12.238 -0.2677  0.1016  0.0436
    3ALA      N   17  15.230  14.967  12.138  0.0081 -0.2352  0.0282
    3ALA      H   18  15.319  14.939  12.099 -0.5528 -1.8230 -0.1605
    3ALA     CA   19  15.118  14.872  12.136  0.0423 -0.9490 -0.2709
    3ALA     HA   20  15.029  14.922  12.099 -0.2958 -1.7006 -0.4943
    3ALA     CB   21  15.145  14.749  12.047 -0.7594 -0.3030 -0.1488
    3ALA    HB1   22  15.066  14.673  12.045  0.4065 -1.5746  0.6664
    3ALA    HB2   23  15.165  14.772  11.943 -0.7139 -0.6260 -0.2161
    3ALA    HB3   24  15.237  14.702  12.081  1.0988  2.1096 -1.5611
    3ALA      C   25  15.068  14.832  12.282  0.1400  0.2271 -0.5412
    3ALA      O   26  14.949  14.808  12.299 -0.4312 -0.2656 -0.6590
    4ALA      N   27  15.157  14.828  12.382 -0.1454  0.0727  0.6643
    4ALA      H   28  15.252  14.853  12.361 -0.4956  2.2018  1.3431
    4ALA     CA   29  15.124  14.781  12.524 -0.4460 -0.0374 -0.0319
    4ALA     HA   30  15.056  14.696  12.513 -0.6879  0.1767 -0.1904
    4ALA     CB   31  15.254  14.719  12.573  0.2279  0.1432 -0.2276
    4ALA    HB1   32  15.340  14.784  12.590 -0.0451  0.6963 -0.8688
    4ALA    HB2   33  15.225  14.668  12.665  0.0296 -0.9281 -0.8733
    4ALA    HB3   34  15.286  14.641  12.505  1.7165  0.9101 -0.4320
    4ALA      C   35  15.071  14.899  12.618 -0.5403  0.2875  0.3287
    4ALA      O   36  15.090  14.895  12.743  0.1895 -0.1102  0.4345
    5NME      N   37  15.024  15.014  12.560  0.2472  0.0990  0.6594
    5NME      H   38  15.030  15.031  12.461 -0.8371  0.4364  0.6398
    5NME    CH3   39  15.001  15.135  12.630 -0.6894  0.1792  0.1935
    5NME   HH31   40  14.993  15.212  12.553  0.3014 -0.3177 -0.4336
    5NME   HH32   41  14.910  15.129  12.689  0.1875  0.1963  1.5995
    5NME   HH33   42  15.088  15.155  12.693  0.1815 -2.1024 -0.2161
  20.91516  20.91516  20.91516
