Protein
   42
    1ACE   HH31    1   8.794   5.558   1.333  0.7966 -0.0432  0.3724
    1ACE    CH3    2   8.875   5.566   1.260 -0.0047 -0.2353 -0.5729
    1ACE   HH32    3   8.827   5.603   1.169  0.1133 -0.0331 -0.5524
    1ACE   HH33    4   8.918   5.466   1.252  1.1296  0.3278 -1.8599
    1ACE      C    5   8.983   5.670   1.294 -0.0413  0.1008 -0.7478
    1ACE      O    6   8.969   5.760   1.376 -0.4669 -0.0268  0.1569
    2ALA      N    7   9.099   5.648   1.230 -0.1889  0.3084 -0.3664
    2ALA      H    8   9.103   5.573   1.162  0.2582  1.4864 -1.7049
    2ALA     CA    9   9.224   5.721   1.255 -0.0894 -0.4303 -0.0886
    2ALA     HA   10   9.303   5.651   1.228  1.1623  1.3947 -1.4796
    2ALA     CB   11   9.239   5.856   1.174  0.1373  0.1370 -0.2076
    2ALA    HB1   12   9.214   5.841   1.069  0.4585  0.4477 -0.3299
    2ALA    HB2   13   9.179   5.933   1.222  0.2551 -0.4424  0.9003
    2ALA    HB3   14   9.338   5.900   1.164  0.9391 -1.7880 -1.1625
    2ALA      C   15   9.248   5.749   1.407  0.3660  0.7003 -0.7273
    2ALA      O   16   9.224   5.668   1.498  0.4611  0.3134  0.4092
    3ALA      N   17   9.304   5.869   1.443 -0.4520 -0.7025 -0.3866
    3ALA      H   18   9.317   5.939   1.371 -0.0100 -1.7829 -1.3727
    3ALA     CA   19   9.323   5.917   1.581  0.2658 -0.1080  0.1824
    3ALA     HA   20   9.344   5.830   1.643 -1.1980 -0.8065 -0.2586
    3ALA     CB   21   9.444   6.018   1.578 -0.0899  0.3230  0.1754
    3ALA    HB1   22   9.491   6.028   1.676 -0.1463  1.1470  0.1267
    3ALA    HB2   23   9.515   5.988   1.501  0.2312  0.8806  0.2496
    3ALA    HB3   24   9.406   6.117   1.553 -0.9840 -0.2306 -0.7582
    3ALA      C   25   9.197   5.982   1.649  0.0494 -0.6026  0.2046
    3ALA      O   26   9.207   6.073   1.729 -0.1409  0.1550  0.2037
    4ALA      N   27   9.081   5.933   1.602 -0.0342 -0.0168 -0.6976
    4ALA      H   28   9.080   5.855   1.537 -1.2808  0.2757 -1.0698
    4ALA     CA   29   8.955   5.972   1.664 -0.2884 -0.6619 -0.1100
    4ALA     HA   30   8.960   6.044   1.745 -2.4849  0.4331 -0.8779
    4ALA     CB   31   8.877   6.050   1.557  0.4996 -0.6185 -0.2203
    4ALA    HB1   32   8.898   6.028   1.452 -1.0890  0.5399 -0.8008
    4ALA    HB2   33   8.770   6.032   1.564  0.5579 -0.2671  2.4620
    4ALA    HB3   34   8.891   6.156   1.576 -1.1985 -0.2648 -0.8865
    4ALA      C   35   8.874   5.847   1.710 -0.1712 -0.1094 -0.0382
    4ALA      O   36   8.786   5.864   1.793 -0.3196  0.1010 -0.1733
    5NME      N   37   8.914   5.726   1.666 -0.2973 -0.5950 -0.5650
    5NME      H   38   8.987   5.724   1.596  4.0492  1.7736  3.3423
    5NME    CH3   39   8.842   5.609   1.703  0.0118 -0.2648 -0.3856
    5NME   HH31   40   8.902   5.524   1.737  1.6707  0.3557 -1.6259
    5NME   HH32   41   8.768   5.635   1.779  1.1804  0.2678  0.6135
    5NME   HH33   42   8.785   5.581   1.615  1.9083 -1.8292 -1.2051
  20.91516  20.91516  20.91516
