Protein
   32
    1ACE   HH31    1   9.715  15.412  10.451  3.3423  0.2810 -0.8112
    1ACE    CH3    2   9.695  15.519  10.458 -0.0921 -0.3269  0.4439
    1ACE   HH32    3   9.781  15.586  10.465 -0.4203  0.2698 -0.9880
    1ACE   HH33    4   9.634  15.531  10.548 -1.0817 -2.5367  0.1477
    1ACE      C    5   9.608  15.568  10.344  0.7238  0.3015  0.1140
    1ACE      O    6   9.498  15.620  10.374  0.5109  0.1891 -0.0941
    2ALA      N    7   9.659  15.554  10.226  0.2128 -0.2368 -0.3813
    2ALA      H    8   9.749  15.510  10.216  0.1400 -0.7420  1.0093
    2ALA     CA    9   9.609  15.629  10.107  0.3892  0.6670  0.6146
    2ALA     HA   10   9.563  15.721  10.143 -1.2738  0.2295 -0.3153
    2ALA     CB   11   9.720  15.682  10.015 -0.4278  1.1099 -0.5488
    2ALA    HB1   12   9.770  15.599   9.965 -1.8620  0.9658 -1.7914
    2ALA    HB2   13   9.680  15.747   9.937 -0.0999  1.3508 -0.5251
    2ALA    HB3   14   9.788  15.735  10.082 -0.5120 -0.3779  0.7778
    2ALA      C   15   9.501  15.557  10.032 -0.8218  0.3583  0.1984
    2ALA      O   16   9.528  15.469   9.949  0.2175 -0.4204 -0.4293
    3ALA      N   17   9.375  15.602  10.049 -0.4100 -0.7331 -0.5145
    3ALA      H   18   9.370  15.676  10.119  0.1363  1.3987 -2.5764
    3ALA     CA   19   9.257  15.549   9.989  0.6768 -0.1752  0.2532
    3ALA     HA   20   9.260  15.523   9.883  0.1905  1.1302 -0.1071
    3ALA     CB   21   9.206  15.433  10.066 -0.1202  0.2731  0.0929
    3ALA    HB1   22   9.254  15.341  10.031 -1.0460 -0.8276  1.6017
    3ALA    HB2   23   9.224  15.441  10.173  0.4929  1.4641 -0.0827
    3ALA    HB3   24   9.101  15.416  10.045  0.0694 -1.9885  0.6744
    3ALA      C   25   9.147  15.660   9.991  0.3809 -0.5243  0.5338
    3ALA      O   26   9.076  15.673  10.086 -0.0861  0.0451  0.4489
    4NME      N   27   9.142  15.744   9.886  0.3010  0.6331  0.1383
    4NME      H   28   9.206  15.719   9.812  0.0097  1.0373 -0.2530
    4NME    CH3   29   9.061  15.856   9.863  0.7927  0.7820 -0.0155
    4NME   HH31   30   9.066  15.877   9.757 -1.6407  2.6965  0.1582
    4NME   HH32   31   8.957  15.831   9.881  0.5540  0.4545 -1.7041
    4NME   HH33   32   9.092  15.938   9.928  1.7430 -0.4747  1.2094
  20.99041  20.99041  20.99041
