Protein
   42
    1ACE   HH31    1  12.416  11.951   6.326  0.0092 -2.6559 -0.5098
    1ACE    CH3    2  12.337  11.933   6.400  0.0775 -0.0828  0.2834
    1ACE   HH32    3  12.279  11.843   6.381  0.0064 -0.0886  0.5283
    1ACE   HH33    4  12.277  12.023   6.408 -0.2870 -0.3127  0.2051
    1ACE      C    5  12.404  11.920   6.535 -1.0718  0.1181  0.5567
    1ACE      O    6  12.361  11.975   6.637 -0.1104  0.0358 -0.1619
    2ALA      N    7  12.517  11.849   6.541  0.5650  0.1418  0.3114
    2ALA      H    8  12.545  11.808   6.453 -1.1440 -1.5538  0.4851
    2ALA     CA    9  12.587  11.830   6.664  0.1181 -0.0369 -0.1851
    2ALA     HA   10  12.509  11.827   6.740  1.0258 -0.7812  0.7606
    2ALA     CB   11  12.649  11.691   6.666  0.7480  0.2937 -0.2498
    2ALA    HB1   12  12.714  11.683   6.579  0.0645 -2.6495 -0.6143
    2ALA    HB2   13  12.706  11.688   6.759 -0.2626  0.1570  0.3817
    2ALA    HB3   14  12.563  11.623   6.666  1.2070 -0.3119  0.0120
    2ALA      C   15  12.691  11.941   6.680 -0.1915  0.6321 -0.3226
    2ALA      O   16  12.774  11.955   6.595 -0.0328  0.0698  0.7193
    3ALA      N   17  12.686  12.030   6.786  0.1935  0.2220  0.0637
    3ALA      H   18  12.758  12.100   6.792  2.4234 -1.8471 -0.7142
    3ALA     CA   19  12.584  12.031   6.890  0.3341  0.6997  0.2397
    3ALA     HA   20  12.488  12.029   6.838  1.5628  0.1448 -2.1816
    3ALA     CB   21  12.616  11.913   6.981 -0.3023  0.7855 -0.4018
    3ALA    HB1   22  12.613  11.821   6.924  1.1194  1.1214 -1.0871
    3ALA    HB2   23  12.716  11.919   7.025 -0.5113 -0.0523  0.1974
    3ALA    HB3   24  12.541  11.897   7.058  1.2977  0.3838  1.1308
    3ALA      C   25  12.604  12.176   6.960 -0.3850  0.6499 -0.0631
    3ALA      O   26  12.712  12.229   6.968  0.0256  0.5015 -0.3570
    4ALA      N   27  12.501  12.217   7.032 -0.6096 -0.3221  0.3079
    4ALA      H   28  12.413  12.170   7.017 -2.0302  2.0949  0.3778
    4ALA     CA   29  12.496  12.347   7.096 -0.0945 -0.2374 -0.6555
    4ALA     HA   30  12.538  12.424   7.031 -3.0504  0.1832 -2.2310
    4ALA     CB   31  12.348  12.382   7.101  0.0061 -0.5871  0.4005
    4ALA    HB1   32  12.304  12.306   7.165  1.1187 -0.8963  0.8103
    4ALA    HB2   33  12.327  12.484   7.135  0.0541 -0.3599 -0.2288
    4ALA    HB3   34  12.289  12.363   7.011 -0.8684 -0.4705  0.9399
    4ALA      C   35  12.575  12.360   7.230 -0.4408  0.4698  1.3530
    4ALA      O   36  12.526  12.407   7.328  0.0153  0.9160  0.1678
    5NME      N   37  12.700  12.307   7.229  0.3169  0.6048  0.0330
    5NME      H   38  12.729  12.283   7.135  0.9909  2.9542 -0.4533
    5NME    CH3   39  12.775  12.290   7.346 -0.0142  0.0462  1.1328
    5NME   HH31   40  12.796  12.392   7.378 -1.3148  0.7032  0.0097
    5NME   HH32   41  12.723  12.233   7.423  2.4723 -1.0211  2.1334
    5NME   HH33   42  12.869  12.241   7.317 -1.2705 -1.7736 -0.1371
  20.91516  20.91516  20.91516
