Protein
   42
    1ACE   HH31    1   6.957   9.185   0.992  1.0900 -1.4493 -1.2456
    1ACE    CH3    2   6.921   9.195   0.889  0.0520  0.0994 -0.7600
    1ACE   HH32    3   6.883   9.097   0.859 -1.9786  0.2885  0.9156
    1ACE   HH33    4   6.994   9.240   0.822 -0.7428  1.6822 -0.6073
    1ACE      C    5   6.802   9.280   0.869  0.6093  0.2760 -0.0250
    1ACE      O    6   6.814   9.398   0.835 -0.2308 -0.2139 -0.1897
    2ALA      N    7   6.685   9.222   0.894  0.8011 -0.4876 -0.0658
    2ALA      H    8   6.669   9.130   0.934 -3.3142 -0.5198 -1.3721
    2ALA     CA    9   6.551   9.290   0.872 -0.3006  0.5618  0.4374
    2ALA     HA   10   6.569   9.397   0.860  1.6146  0.1386 -0.8088
    2ALA     CB   11   6.506   9.246   0.735 -0.3330  0.4738 -0.1341
    2ALA    HB1   12   6.400   9.271   0.724 -0.7016 -0.3409  1.3885
    2ALA    HB2   13   6.561   9.290   0.651 -0.2279  2.6907  1.0298
    2ALA    HB3   14   6.508   9.137   0.733 -2.1511  0.4157 -0.5805
    2ALA      C   15   6.450   9.256   0.987 -0.0509  0.0249 -0.8095
    2ALA      O   16   6.378   9.159   0.975 -0.1224  0.3607 -0.2114
    3ALA      N   17   6.476   9.300   1.114 -0.8550 -0.2128 -0.5712
    3ALA      H   18   6.429   9.237   1.178  0.4709 -1.0346 -0.3584
    3ALA     CA   19   6.587   9.388   1.161  0.0457 -0.6417  0.6473
    3ALA     HA   20   6.668   9.380   1.088  0.0933 -1.5067  0.7720
    3ALA     CB   21   6.543   9.535   1.167  0.8950  0.2695  0.0698
    3ALA    HB1   22   6.620   9.604   1.202  1.9079 -0.1147 -1.3180
    3ALA    HB2   23   6.501   9.561   1.070 -2.1762  0.8582  1.4429
    3ALA    HB3   24   6.459   9.541   1.237 -0.2146 -0.0912 -1.1791
    3ALA      C   25   6.642   9.343   1.302  0.0721 -0.0248  0.3320
    3ALA      O   26   6.573   9.268   1.373  0.0811 -0.1999  0.9150
    4ALA      N   27   6.765   9.384   1.326  0.7220  0.9386 -0.2491
    4ALA      H   28   6.799   9.444   1.253  1.7916  1.6525  0.8141
    4ALA     CA   29   6.841   9.356   1.445 -0.8444 -0.0233  0.3893
    4ALA     HA   30   6.873   9.253   1.432  0.0345  0.1580  0.9697
    4ALA     CB   31   6.983   9.431   1.438 -0.0235 -0.2865 -0.3618
    4ALA    HB1   32   7.053   9.390   1.511 -0.9398 -3.0459 -0.9210
    4ALA    HB2   33   7.020   9.399   1.340  0.7047 -0.7669  0.0581
    4ALA    HB3   34   6.974   9.539   1.442 -2.3338 -0.2862 -2.6945
    4ALA      C   35   6.785   9.359   1.588  0.1469  0.0768  0.4480
    4ALA      O   36   6.860   9.323   1.680 -0.4059  0.5592 -0.1472
    5NME      N   37   6.662   9.411   1.617  0.0220 -0.2036 -0.0789
    5NME      H   38   6.607   9.442   1.538  0.0603  0.3796  0.1203
    5NME    CH3   39   6.594   9.391   1.746  0.0859 -0.4441 -0.2064
    5NME   HH31   40   6.666   9.346   1.813  1.1678 -3.3774 -3.0246
    5NME   HH32   41   6.553   9.481   1.791  0.9828 -1.0414  1.9095
    5NME   HH33   42   6.509   9.324   1.731 -1.4242  1.0620  1.1421
  20.91516  20.91516  20.91516
