Protein
   42
    1ACE   HH31    1   9.554  13.004   6.875  1.3741 -0.5394  0.4558
    1ACE    CH3    2   9.523  12.915   6.930 -0.1015 -0.1987  0.2129
    1ACE   HH32    3   9.434  12.950   6.983 -1.8081 -1.3993 -1.7051
    1ACE   HH33    4   9.609  12.890   6.992  1.6233  0.8381 -1.6715
    1ACE      C    5   9.487  12.807   6.836  0.0733  0.6351 -0.3541
    1ACE      O    6   9.463  12.695   6.888 -1.0391  0.2330  0.0848
    2ALA      N    7   9.499  12.823   6.704  0.5656  0.2496  0.2041
    2ALA      H    8   9.534  12.912   6.669  0.8359 -0.4958 -1.5258
    2ALA     CA    9   9.492  12.711   6.610  0.1816 -0.0246 -0.2066
    2ALA     HA   10   9.387  12.685   6.595 -0.1553  1.0078  0.2810
    2ALA     CB   11   9.551  12.772   6.479  0.3659 -0.2176  0.6376
    2ALA    HB1   12   9.657  12.792   6.485  0.4597 -0.7159  0.7339
    2ALA    HB2   13   9.537  12.700   6.398  1.3466  0.4081 -0.1057
    2ALA    HB3   14   9.490  12.861   6.464  1.3039  0.6443  1.8208
    2ALA      C   15   9.568  12.581   6.646  0.3092 -0.0211  0.3459
    2ALA      O   16   9.685  12.589   6.675 -0.1227 -0.3605  0.2028
    3ALA      N   17   9.504  12.459   6.631  0.0511 -0.3624 -0.6212
    3ALA      H   18   9.418  12.459   6.578 -0.0573 -0.7497 -0.4518
    3ALA     CA   19   9.568  12.336   6.679 -0.6955  0.6446 -0.2472
    3ALA     HA   20   9.486  12.271   6.710 -0.9094  0.5777 -0.9426
    3ALA     CB   21   9.641  12.263   6.558  0.1672  0.2760  0.5365
    3ALA    HB1   22   9.723  12.326   6.525 -1.3850  0.8190 -2.7301
    3ALA    HB2   23   9.670  12.160   6.582 -0.3056  0.0441  0.1505
    3ALA    HB3   24   9.565  12.257   6.479  1.9480 -3.0962 -1.1467
    3ALA      C   25   9.646  12.335   6.811  0.1387  0.4083  0.1829
    3ALA      O   26   9.734  12.260   6.838 -0.3902 -0.1594  0.2941
    4ALA      N   27   9.608  12.430   6.900 -0.2669 -0.3026 -0.2725
    4ALA      H   28   9.537  12.492   6.863  0.5838  0.8930  0.0512
    4ALA     CA   29   9.667  12.468   7.029  0.3342 -0.1087  0.2374
    4ALA     HA   30   9.613  12.556   7.064  0.2395  0.2569 -0.7816
    4ALA     CB   31   9.644  12.354   7.129  0.5763  0.0297 -0.0205
    4ALA    HB1   32   9.540  12.321   7.135 -0.0197  1.4938 -1.5058
    4ALA    HB2   33   9.696  12.266   7.090  1.0329  0.8158 -1.2724
    4ALA    HB3   34   9.687  12.379   7.226 -0.8683 -0.7374  0.8564
    4ALA      C   35   9.814  12.517   7.017 -0.1584  0.3243  0.4702
    4ALA      O   36   9.866  12.543   7.124  0.2633 -0.2887 -0.5103
    5NME      N   37   9.876  12.544   6.895  0.5145 -0.2937 -0.1833
    5NME      H   38   9.828  12.522   6.809 -0.0747 -1.8921  0.5156
    5NME    CH3   39  10.008  12.600   6.890 -0.4717  0.3361  0.0419
    5NME   HH31   40  10.084  12.554   6.826  1.0564  2.4806  0.1915
    5NME   HH32   41  10.005  12.708   6.872 -0.1825  0.6874  1.8646
    5NME   HH33   42  10.067  12.583   6.981  2.3911  3.0239 -1.1023
  20.91516  20.91516  20.91516
