Protein
   42
    1ACE   HH31    1   4.460  12.784   5.727 -1.5936 -0.1437  0.3371
    1ACE    CH3    2   4.493  12.685   5.696 -1.0570  0.0034  0.4335
    1ACE   HH32    3   4.517  12.639   5.792 -0.0286 -0.8886 -0.2315
    1ACE   HH33    4   4.583  12.687   5.634 -1.2307 -2.7463 -0.0142
    1ACE      C    5   4.381  12.617   5.625  0.3059 -0.0775 -0.4026
    1ACE      O    6   4.349  12.503   5.660 -0.3801  0.3237 -0.0775
    2ALA      N    7   4.323  12.672   5.522  0.2502  0.6970  0.0696
    2ALA      H    8   4.350  12.762   5.485 -0.0291  2.4630  3.6457
    2ALA     CA    9   4.235  12.597   5.432 -0.0112  0.8086 -0.4565
    2ALA     HA   10   4.155  12.550   5.489  1.3522 -0.1397  0.7222
    2ALA     CB   11   4.172  12.688   5.330 -0.1038 -0.7410  0.6048
    2ALA    HB1   12   4.101  12.756   5.377 -0.3220  0.1130 -0.9231
    2ALA    HB2   13   4.256  12.748   5.294 -0.7448  1.3246  2.3467
    2ALA    HB3   14   4.122  12.638   5.247 -2.7497  1.7055  0.5623
    2ALA      C   15   4.303  12.474   5.370  0.8596 -0.1159 -0.1958
    2ALA      O   16   4.419  12.478   5.337 -0.5315 -0.1094  0.0654
    3ALA      N   17   4.245  12.357   5.359 -0.5915  0.0909  0.6993
    3ALA      H   18   4.298  12.294   5.300 -0.6535  0.7038 -0.0378
    3ALA     CA   19   4.111  12.314   5.397  0.3943  0.3392  0.0319
    3ALA     HA   20   4.033  12.383   5.364  0.1082 -0.1125 -0.2339
    3ALA     CB   21   4.069  12.190   5.307  0.1497 -0.0168 -0.1785
    3ALA    HB1   22   4.141  12.109   5.321 -0.2202 -0.2006  0.7432
    3ALA    HB2   23   3.975  12.148   5.342 -0.3237  0.5470 -0.7456
    3ALA    HB3   24   4.060  12.209   5.200 -1.7684  2.6382  0.3577
    3ALA      C   25   4.092  12.290   5.548  0.7641  0.4444  0.1503
    3ALA      O   26   3.976  12.290   5.593  0.0062  0.3543 -0.4605
    4ALA      N   27   4.197  12.255   5.618 -0.9622 -0.2014 -0.3664
    4ALA      H   28   4.286  12.261   5.570 -0.5276 -1.7214  0.1743
    4ALA     CA   29   4.193  12.204   5.759  0.2951  0.5890  0.7909
    4ALA     HA   30   4.114  12.129   5.754 -0.5750  1.5687 -2.1876
    4ALA     CB   31   4.327  12.143   5.801 -0.2530 -0.8295 -0.2930
    4ALA    HB1   32   4.318  12.102   5.902  0.6644  0.4383  0.3208
    4ALA    HB2   33   4.374  12.078   5.728  2.5953  1.8770 -1.0677
    4ALA    HB3   34   4.397  12.226   5.796  0.9490 -1.7353  0.5794
    4ALA      C   35   4.143  12.302   5.867 -0.6765  0.1635  0.4207
    4ALA      O   36   4.102  12.265   5.977  0.1753  0.2741 -0.0337
    5NME      N   37   4.141  12.432   5.829 -0.3149  0.3763  0.0221
    5NME      H   38   4.186  12.457   5.742 -0.2586 -0.4203 -0.1899
    5NME    CH3   39   4.081  12.542   5.905 -0.2598 -0.2527 -0.1733
    5NME   HH31   40   4.084  12.646   5.872 -1.9605  1.3056  3.9510
    5NME   HH32   41   3.976  12.511   5.895 -0.3157  0.0420 -0.5558
    5NME   HH33   42   4.087  12.536   6.014 -0.1002 -2.6260 -0.2633
  20.91516  20.91516  20.91516
