Protein
   42
    1ACE   HH31    1   3.128   8.194   8.510 -0.2758 -1.8142 -1.5551
    1ACE    CH3    2   3.230   8.201   8.471  0.2171  0.3037 -0.1063
    1ACE   HH32    3   3.241   8.306   8.446 -1.2128  0.6259  0.5020
    1ACE   HH33    4   3.243   8.142   8.380  0.4765  1.6380 -0.9393
    1ACE      C    5   3.329   8.145   8.577  0.0508 -0.8508 -0.0573
    1ACE      O    6   3.383   8.037   8.571  0.5096  0.2142  0.2177
    2ALA      N    7   3.341   8.225   8.688 -0.6728  0.1110 -0.0757
    2ALA      H    8   3.290   8.312   8.692 -2.3513 -0.8211 -0.4115
    2ALA     CA    9   3.442   8.198   8.785  0.3548 -0.1675 -0.5133
    2ALA     HA   10   3.533   8.161   8.740  0.4764 -2.6838  1.5175
    2ALA     CB   11   3.461   8.329   8.859  0.3428  0.4109 -0.9122
    2ALA    HB1   12   3.387   8.351   8.936  0.5987  0.8566 -0.7914
    2ALA    HB2   13   3.557   8.330   8.911  0.5826  2.0520 -1.3468
    2ALA    HB3   14   3.462   8.417   8.794 -0.3481  1.3369  0.2794
    2ALA      C   15   3.412   8.077   8.873  0.1433  0.5251 -0.0736
    2ALA      O   16   3.443   8.076   8.995  0.1573 -0.5110  0.7727
    3ALA      N   17   3.344   7.972   8.831 -0.1244 -0.4053 -0.3756
    3ALA      H   18   3.328   7.979   8.732  0.7326  0.4867 -0.4772
    3ALA     CA   19   3.318   7.844   8.892 -0.6093  0.5393 -0.8968
    3ALA     HA   20   3.266   7.865   8.985 -2.2743 -0.8169 -1.4668
    3ALA     CB   21   3.218   7.767   8.806 -1.2294  0.2972  0.4787
    3ALA    HB1   22   3.245   7.764   8.700 -4.3679  0.1885 -0.4267
    3ALA    HB2   23   3.217   7.665   8.845 -1.2745  0.7735  1.7470
    3ALA    HB3   24   3.116   7.802   8.823 -2.6138 -2.3102 -1.5839
    3ALA      C   25   3.447   7.755   8.930  0.3897 -0.9479 -0.1595
    3ALA      O   26   3.462   7.642   8.889 -0.1621 -0.3109 -0.0721
    4ALA      N   27   3.548   7.809   9.004 -0.4351  0.2228  1.0779
    4ALA      H   28   3.529   7.906   9.024  1.0468  0.1873  3.0616
    4ALA     CA   29   3.680   7.757   9.036 -0.2553 -0.4939 -0.3723
    4ALA     HA   30   3.724   7.839   9.094  0.8602 -0.3319 -1.3944
    4ALA     CB   31   3.675   7.642   9.141 -0.4659  0.5283 -0.9189
    4ALA    HB1   32   3.775   7.610   9.168 -0.9199  0.2798  0.5479
    4ALA    HB2   33   3.624   7.668   9.234 -0.4621  0.0851 -0.7919
    4ALA    HB3   34   3.617   7.560   9.097 -2.1667  1.1527  0.0770
    4ALA      C   35   3.782   7.735   8.924  0.3832  0.7122 -0.2593
    4ALA      O   36   3.901   7.753   8.938 -0.3662  0.1342  0.1967
    5NME      N   37   3.727   7.705   8.808 -0.5090  1.3868 -0.4712
    5NME      H   38   3.627   7.690   8.806 -0.2799 -0.4021  0.0768
    5NME    CH3   39   3.793   7.676   8.681  0.3096 -0.1412  0.1382
    5NME   HH31   40   3.762   7.747   8.605  1.5802 -0.6358 -0.8649
    5NME   HH32   41   3.896   7.705   8.697  0.0271  0.8396  0.2197
    5NME   HH33   42   3.787   7.571   8.652  0.2059 -0.3396  0.8153
  20.91516  20.91516  20.91516
