Protein
   32
    1ACE   HH31    1  14.694   8.043   9.804  0.0989 -0.9267 -0.7399
    1ACE    CH3    2  14.586   8.036   9.815  0.0654 -0.9923 -1.0587
    1ACE   HH32    3  14.556   8.106   9.893  2.3808 -0.7695 -0.2815
    1ACE   HH33    4  14.555   7.938   9.852 -1.2041 -0.1235  0.2677
    1ACE      C    5  14.510   8.071   9.690  0.6122 -0.1952  0.5601
    1ACE      O    6  14.411   8.138   9.702  0.0393 -0.7471 -0.7974
    2ALA      N    7  14.555   8.021   9.569  0.3867  0.7145 -0.1481
    2ALA      H    8  14.645   7.976   9.558  0.9063  2.0531 -1.8916
    2ALA     CA    9  14.489   8.067   9.446  0.6838 -0.5672 -0.2356
    2ALA     HA   10  14.401   8.122   9.479 -0.1868 -2.6838  1.1672
    2ALA     CB   11  14.589   8.152   9.360 -1.2470  0.7254 -0.4790
    2ALA    HB1   12  14.653   8.073   9.320 -2.1102  0.4667 -1.4227
    2ALA    HB2   13  14.529   8.199   9.282 -0.7697  1.1419 -0.6026
    2ALA    HB3   14  14.643   8.224   9.420 -1.0935 -0.0070  0.2884
    2ALA      C   15  14.427   7.951   9.366  0.0947  0.2956 -0.1871
    2ALA      O   16  14.464   7.917   9.252 -0.4048 -0.2125 -0.0567
    3ALA      N   17  14.337   7.880   9.437 -0.0679 -0.4378  0.0242
    3ALA      H   18  14.307   7.916   9.526  2.3852 -1.6939  1.4724
    3ALA     CA   19  14.252   7.772   9.381 -0.6469  0.3098 -0.3284
    3ALA     HA   20  14.277   7.759   9.275  0.5142  3.1838 -0.5031
    3ALA     CB   21  14.286   7.634   9.434  0.1318  0.1330 -0.4794
    3ALA    HB1   22  14.310   7.632   9.540 -1.4654  1.2502 -0.0613
    3ALA    HB2   23  14.201   7.566   9.422 -1.6313  2.2291 -0.4000
    3ALA    HB3   24  14.365   7.586   9.377  0.6755  0.4072  0.0319
    3ALA      C   25  14.110   7.813   9.388 -0.2114 -0.1964 -0.2915
    3ALA      O   26  14.062   7.873   9.485 -0.1793 -0.1993 -0.2662
    4NME      N   27  14.034   7.790   9.279 -0.1026  0.7036 -0.9225
    4NME      H   28  14.078   7.747   9.199  0.1058 -2.3888  0.6904
    4NME    CH3   29  13.904   7.864   9.246 -0.3171 -0.3993 -0.1454
    4NME   HH31   30  13.836   7.856   9.330 -0.8449 -0.4480 -0.5792
    4NME   HH32   31  13.929   7.970   9.236 -0.5501 -0.3000  0.2931
    4NME   HH33   32  13.857   7.822   9.158  0.7972  2.2164 -2.1203
  20.99041  20.99041  20.99041
