Protein
   32
    1ACE   HH31    1   7.572  10.820  13.980 -2.3118  0.7475  0.7013
    1ACE    CH3    2   7.616  10.908  13.933 -0.6204  0.1042  1.0150
    1ACE   HH32    3   7.677  10.891  13.845 -1.2600  0.3858  0.5094
    1ACE   HH33    4   7.678  10.961  14.006 -1.2577 -0.4657  2.0106
    1ACE      C    5   7.501  10.999  13.881 -0.4836  0.0989 -0.4977
    1ACE      O    6   7.478  11.118  13.914 -0.3626  0.2505  0.9254
    2ALA      N    7   7.422  10.937  13.793 -0.3308 -0.4118  0.0077
    2ALA      H    8   7.460  10.848  13.765 -1.8240 -1.3922  0.9171
    2ALA     CA    9   7.292  10.986  13.740  1.0503  0.2332 -0.1273
    2ALA     HA   10   7.289  11.094  13.754 -1.0214  0.2047 -0.1842
    2ALA     CB   11   7.288  10.972  13.583 -0.3967  0.1633  0.0031
    2ALA    HB1   12   7.265  10.871  13.549  0.5699  0.8929 -3.2039
    2ALA    HB2   13   7.213  11.043  13.549 -0.9108 -0.7906 -0.9023
    2ALA    HB3   14   7.384  11.007  13.544  0.5245  0.2198  2.1798
    2ALA      C   15   7.172  10.936  13.818  0.6605 -0.8945 -0.0424
    2ALA      O   16   7.161  10.966  13.935  0.2500  0.1813 -0.0930
    3ALA      N   17   7.093  10.856  13.757 -0.0350 -0.2264  0.1551
    3ALA      H   18   7.097  10.852  13.656 -0.8980 -3.3756  0.0993
    3ALA     CA   19   6.984  10.776  13.813  0.0408  0.4104 -0.9840
    3ALA     HA   20   6.972  10.801  13.918 -1.0405  1.3956 -1.3373
    3ALA     CB   21   6.852  10.791  13.743  0.1699 -0.1256  0.4206
    3ALA    HB1   22   6.821  10.895  13.752 -0.9951 -0.5210  1.2653
    3ALA    HB2   23   6.869  10.777  13.636  2.6422  0.9968  0.6199
    3ALA    HB3   24   6.765  10.737  13.782 -0.0687  0.6321  0.9611
    3ALA      C   25   7.029  10.627  13.804  0.7298  0.4503 -1.0474
    3ALA      O   26   7.102  10.583  13.710  0.2713 -0.2765 -0.8010
    4NME      N   27   6.992  10.542  13.905 -0.3562  0.2764 -0.2834
    4NME      H   28   6.934  10.580  13.978  0.4698  1.9041 -0.4451
    4NME    CH3   29   7.020  10.396  13.904  0.0897  0.1037  0.1603
    4NME   HH31   30   7.126  10.371  13.908  0.3531  0.6460 -2.0519
    4NME   HH32   31   6.962  10.346  13.982 -1.9615  1.7547 -0.2153
    4NME   HH33   32   6.986  10.364  13.806 -0.9884  2.9418 -0.5124
  20.99041  20.99041  20.99041
