Protein
   42
    1ACE   HH31    1  20.391  17.357   9.305  0.9443  0.9653  0.7659
    1ACE    CH3    2  20.323  17.435   9.269 -0.0952 -0.4253 -0.4616
    1ACE   HH32    3  20.223  17.398   9.292  0.2652 -0.8278  0.5018
    1ACE   HH33    4  20.319  17.468   9.165 -2.2141  3.3831  0.6505
    1ACE      C    5  20.349  17.559   9.359  0.4641  0.6340 -0.2451
    1ACE      O    6  20.255  17.619   9.410 -0.3506 -0.1658  0.7224
    2ALA      N    7  20.479  17.585   9.382  0.4327 -0.3018  0.4248
    2ALA      H    8  20.544  17.518   9.341 -0.0868 -0.1906 -0.6275
    2ALA     CA    9  20.537  17.700   9.462  0.3762  0.8204 -0.3980
    2ALA     HA   10  20.616  17.653   9.520  1.6864  0.6416 -2.2165
    2ALA     CB   11  20.612  17.787   9.359 -0.1385 -0.0798  0.7666
    2ALA    HB1   12  20.544  17.850   9.302  1.7311  0.1143 -1.4241
    2ALA    HB2   13  20.683  17.855   9.405 -1.6891  2.1908 -0.0094
    2ALA    HB3   14  20.671  17.727   9.289  1.1309  2.8952 -0.8957
    2ALA      C   15  20.436  17.775   9.559  0.1753  0.1484  0.2232
    2ALA      O   16  20.434  17.894   9.558  0.2713  0.5171  0.6097
    3ALA      N   17  20.355  17.708   9.650 -0.5866  0.7016  0.2220
    3ALA      H   18  20.379  17.610   9.655  0.6343  0.9105 -0.9961
    3ALA     CA   19  20.242  17.760   9.733 -0.4248 -0.2159  0.1438
    3ALA     HA   20  20.173  17.677   9.751  2.3134 -2.6625  0.0271
    3ALA     CB   21  20.305  17.815   9.865  0.2583  0.1274  0.3321
    3ALA    HB1   22  20.375  17.740   9.901 -0.3063 -0.8871 -0.6118
    3ALA    HB2   23  20.366  17.901   9.837 -0.5882  0.3301 -0.9936
    3ALA    HB3   24  20.220  17.828   9.932 -0.7876  1.5434 -1.1710
    3ALA      C   25  20.161  17.871   9.662  0.0663 -0.5661 -0.7142
    3ALA      O   26  20.105  17.961   9.724  0.4105  0.1750  0.0193
    4ALA      N   27  20.149  17.860   9.527 -0.0509 -0.2122  0.3022
    4ALA      H   28  20.195  17.779   9.489  1.2438 -0.3401  2.0200
    4ALA     CA   29  20.096  17.953   9.433  0.1976 -0.0928  0.6620
    4ALA     HA   30  19.987  17.961   9.433  0.2069  0.7126 -1.5127
    4ALA     CB   31  20.154  18.099   9.459  0.3752 -0.1020 -0.3447
    4ALA    HB1   32  20.100  18.139   9.545  0.4660  0.6113 -0.6160
    4ALA    HB2   33  20.260  18.088   9.481 -0.1278 -2.0387  1.6411
    4ALA    HB3   34  20.143  18.152   9.365 -2.0188  0.6159  0.2691
    4ALA      C   35  20.126  17.922   9.280  1.2277  0.2026 -0.7073
    4ALA      O   36  20.031  17.907   9.201  0.1958  0.1326 -0.2635
    5NME      N   37  20.254  17.915   9.243  0.3665  0.6495  0.3443
    5NME      H   38  20.318  17.921   9.321 -1.5072 -0.6337  2.0897
    5NME    CH3   39  20.304  17.879   9.114  0.8853 -0.2217 -0.2265
    5NME   HH31   40  20.305  17.771   9.111 -2.5152 -0.3755 -0.0040
    5NME   HH32   41  20.240  17.920   9.036  0.6841 -1.5838 -0.7960
    5NME   HH33   42  20.409  17.907   9.109  0.9577 -0.7921 -3.0273
  20.91516  20.91516  20.91516
