Protein
   32
    1ACE   HH31    1  10.933   7.901  15.204 -0.5829  0.8010  0.3022
    1ACE    CH3    2  11.039   7.891  15.226 -0.5600 -0.1908 -0.1899
    1ACE   HH32    3  11.054   7.862  15.330 -0.6455  2.3512  0.6096
    1ACE   HH33    4  11.099   7.979  15.202 -0.0069 -0.2389  0.9321
    1ACE      C    5  11.088   7.782  15.145 -0.6086 -0.0247 -0.4219
    1ACE      O    6  11.083   7.668  15.190  0.1556 -0.1895 -0.2494
    2ALA      N    7  11.123   7.814  15.020 -0.3764  0.0648  0.2190
    2ALA      H    8  11.110   7.907  14.983  0.1705  0.1420  0.2183
    2ALA     CA    9  11.187   7.725  14.929  0.7019 -0.8490  0.0358
    2ALA     HA   10  11.232   7.642  14.984  0.1222 -0.9043  0.4357
    2ALA     CB   11  11.082   7.657  14.835  0.7081 -0.1677  0.4825
    2ALA    HB1   12  11.125   7.589  14.761 -3.0695 -0.8783 -1.2578
    2ALA    HB2   13  11.017   7.592  14.893  0.6306 -0.9562 -0.4600
    2ALA    HB3   14  11.021   7.725  14.776  0.6708  1.0134  1.8321
    2ALA      C   15  11.286   7.805  14.850 -0.3491 -0.4513 -0.4317
    2ALA      O   16  11.260   7.925  14.829  0.2473  0.1134  0.2272
    3ALA      N   17  11.387   7.743  14.798  0.1275 -0.0137 -0.3104
    3ALA      H   18  11.401   7.652  14.840  1.6344  1.0182  1.5719
    3ALA     CA   19  11.495   7.783  14.705  0.1345  0.5886 -0.0109
    3ALA     HA   20  11.568   7.703  14.693 -1.1260 -0.5306 -0.4718
    3ALA     CB   21  11.428   7.804  14.570  0.7025 -0.1174  0.1015
    3ALA    HB1   22  11.374   7.713  14.546  0.6566 -0.5503  1.7847
    3ALA    HB2   23  11.362   7.890  14.572 -2.5409 -2.4321 -0.4210
    3ALA    HB3   24  11.506   7.828  14.497 -1.3809  0.8510 -1.9231
    3ALA      C   25  11.575   7.908  14.760  0.5505  0.7912 -0.1069
    3ALA      O   26  11.695   7.877  14.784  0.4142 -0.2102  0.0215
    4NME      N   27  11.520   8.021  14.796  0.3541 -0.4637  0.2615
    4NME      H   28  11.420   8.026  14.788  0.4511  1.0726 -0.4506
    4NME    CH3   29  11.588   8.147  14.848  0.0266  0.0996  0.8136
    4NME   HH31   30  11.597   8.221  14.769  0.8120 -0.1025  0.7052
    4NME   HH32   31  11.529   8.186  14.931 -0.1189 -0.7859  1.1335
    4NME   HH33   32  11.689   8.127  14.883 -0.3157 -0.0961  1.7092
  20.99041  20.99041  20.99041
