Protein
   42
    1ACE   HH31    1  12.410   6.715   5.683 -0.3820 -0.1846 -0.5337
    1ACE    CH3    2  12.467   6.717   5.591 -0.0319 -0.1678 -0.3165
    1ACE   HH32    3  12.398   6.701   5.509  2.1797 -1.5167 -2.0533
    1ACE   HH33    4  12.540   6.636   5.603 -0.2276 -0.2992  0.0080
    1ACE      C    5  12.533   6.850   5.574  1.0108  0.7897  0.5324
    1ACE      O    6  12.651   6.850   5.559  0.5324  0.5916 -0.4185
    2ALA      N    7  12.446   6.957   5.576  0.3803  0.6879  0.4586
    2ALA      H    8  12.347   6.947   5.595  0.0720  1.9166 -0.3157
    2ALA     CA    9  12.482   7.099   5.562  0.4590 -0.8900  0.2054
    2ALA     HA   10  12.591   7.103   5.556  0.5126  0.1615  1.4893
    2ALA     CB   11  12.431   7.154   5.427  0.2894  0.2370 -0.3237
    2ALA    HB1   12  12.444   7.261   5.415  1.3713  0.3808  1.7484
    2ALA    HB2   13  12.473   7.111   5.336  0.8649  0.0430  0.0329
    2ALA    HB3   14  12.323   7.135   5.422  0.1267  0.7371  0.8891
    2ALA      C   15  12.429   7.188   5.672  0.2856 -0.8201 -0.7345
    2ALA      O   16  12.314   7.175   5.712 -0.5898  0.0049 -0.5530
    3ALA      N   17  12.506   7.292   5.716 -0.3936  0.3291  0.1109
    3ALA      H   18  12.462   7.346   5.790 -1.0755  2.4237 -1.7125
    3ALA     CA   19  12.649   7.327   5.689  0.1327  0.4290 -0.3415
    3ALA     HA   20  12.711   7.238   5.690  0.7647  0.8577  0.6821
    3ALA     CB   21  12.662   7.389   5.545 -0.0578  0.3181 -0.0153
    3ALA    HB1   22  12.654   7.307   5.473  0.0213  1.3978 -1.2633
    3ALA    HB2   23  12.586   7.467   5.545  1.7108  2.1572 -1.4908
    3ALA    HB3   24  12.762   7.430   5.537  0.1629 -0.1969  0.0110
    3ALA      C   25  12.700   7.416   5.807  0.7669  0.3168 -0.5398
    3ALA      O   26  12.622   7.494   5.862  0.3374  0.3964 -0.6492
    4ALA      N   27  12.826   7.403   5.840  0.4575  0.3867 -0.2364
    4ALA      H   28  12.886   7.346   5.783 -2.2367 -1.3138 -1.5852
    4ALA     CA   29  12.885   7.483   5.954 -0.0611 -0.2567 -0.0974
    4ALA     HA   30  12.812   7.509   6.031 -0.6499  0.5017 -0.9034
    4ALA     CB   31  12.987   7.402   6.032  0.1581 -0.2156 -0.5510
    4ALA    HB1   32  13.081   7.404   5.978  1.0624  1.0252  0.9558
    4ALA    HB2   33  13.000   7.433   6.136  0.4855 -2.3262  0.0899
    4ALA    HB3   34  12.947   7.301   6.038 -0.2975 -0.0150  0.0180
    4ALA      C   35  12.934   7.622   5.903  0.1784 -0.2407  0.2563
    4ALA      O   36  12.982   7.633   5.792  0.2101  0.2068  0.4272
    5NME      N   37  12.924   7.723   5.988 -0.4536  0.2476  0.2370
    5NME      H   38  12.867   7.704   6.069  0.2524  0.4278  0.7903
    5NME    CH3   39  12.948   7.858   5.958  0.4499 -0.4525 -0.0989
    5NME   HH31   40  13.044   7.877   5.909 -0.4114  2.1308 -0.9818
    5NME   HH32   41  12.867   7.904   5.901  1.4536  2.1764  0.4658
    5NME   HH33   42  12.951   7.921   6.047 -0.2016  0.6477 -0.8294
  20.91516  20.91516  20.91516
