Protein
   42
    1ACE   HH31    1   1.736   4.991  17.252  4.1436  0.4614  0.5846
    1ACE    CH3    2   1.718   4.988  17.359 -0.7826 -0.5518 -0.0393
    1ACE   HH32    3   1.614   4.974  17.389 -0.4276 -1.0440  1.0157
    1ACE   HH33    4   1.745   5.091  17.384  0.1541 -0.4814 -1.2308
    1ACE      C    5   1.822   4.906  17.429 -0.2986  0.1883 -0.4578
    1ACE      O    6   1.814   4.861  17.543 -0.1408 -0.2572 -0.9373
    2ALA      N    7   1.934   4.903  17.359  0.1826  0.3331  0.1889
    2ALA      H    8   1.931   4.948  17.268 -0.6837  0.0074  0.0523
    2ALA     CA    9   2.038   4.808  17.381 -0.0027  0.2265 -0.5145
    2ALA     HA   10   1.981   4.717  17.403 -1.9126  1.0553 -1.8099
    2ALA     CB   11   2.126   4.792  17.257  0.7576  0.0082 -0.3574
    2ALA    HB1   12   2.056   4.784  17.174 -1.2559  1.2241  1.1475
    2ALA    HB2   13   2.192   4.878  17.246  0.7785 -0.0550 -0.7569
    2ALA    HB3   14   2.184   4.700  17.268 -2.9875 -2.4415  1.2324
    2ALA      C   15   2.127   4.837  17.506 -0.3065  0.1612  0.0831
    2ALA      O   16   2.242   4.794  17.509  0.1516 -0.1686  0.0994
    3ALA      N   17   2.088   4.920  17.604  0.1831  0.2058  0.5391
    3ALA      H   18   1.989   4.941  17.602  0.5363  1.9969  0.1572
    3ALA     CA   19   2.175   4.974  17.711  0.1783 -0.1084  0.0109
    3ALA     HA   20   2.128   5.065  17.751  1.5941  1.1050 -1.0116
    3ALA     CB   21   2.188   4.877  17.826  0.3683  0.1423  0.7236
    3ALA    HB1   22   2.235   4.933  17.907  0.9052  2.3585 -1.0130
    3ALA    HB2   23   2.093   4.845  17.869  0.4255 -0.6056  0.3137
    3ALA    HB3   24   2.239   4.783  17.804 -2.8779 -2.4036  2.9097
    3ALA      C   25   2.307   5.022  17.645  0.9057 -0.3776  0.2555
    3ALA      O   26   2.316   5.115  17.568  0.2942  0.1978  0.0722
    4ALA      N   27   2.419   4.955  17.683  0.1577 -0.1235  0.0151
    4ALA      H   28   2.399   4.876  17.742  0.7478 -1.2780 -1.2712
    4ALA     CA   29   2.555   5.002  17.647  0.1324  0.3106  0.3489
    4ALA     HA   30   2.550   5.111  17.639  0.1963  0.2918  0.0272
    4ALA     CB   31   2.652   4.959  17.766 -0.0548 -0.8340  1.0527
    4ALA    HB1   32   2.652   4.851  17.777 -0.8445 -0.8370  1.0621
    4ALA    HB2   33   2.752   4.996  17.742 -0.8306 -0.4654 -2.3590
    4ALA    HB3   34   2.617   4.992  17.864 -1.9162 -2.1344  0.8794
    4ALA      C   35   2.602   4.950  17.512 -0.3239  0.3258 -0.7447
    4ALA      O   36   2.722   4.957  17.487 -0.4625 -0.0772  0.3302
    5NME      N   37   2.511   4.888  17.431 -0.1957 -0.4598  0.4093
    5NME      H   38   2.411   4.893  17.444  0.0968  1.7403  2.4142
    5NME    CH3   39   2.556   4.832  17.309 -0.2444  0.3264  0.2538
    5NME   HH31   40   2.625   4.749  17.326  0.9865  0.9033 -1.6958
    5NME   HH32   41   2.470   4.785  17.261 -0.7789  0.3577  1.1389
    5NME   HH33   42   2.596   4.906  17.241  0.0001 -0.4573 -0.4805
  20.91516  20.91516  20.91516
