Protein
   42
    1ACE   HH31    1  17.325  16.384  11.195  0.1369  2.5439 -2.0289
    1ACE    CH3    2  17.237  16.338  11.152  0.3251  0.3370 -0.2295
    1ACE   HH32    3  17.201  16.263  11.222 -1.7950  2.0877  0.6674
    1ACE   HH33    4  17.254  16.285  11.058  1.4865  1.4441 -0.6589
    1ACE      C    5  17.115  16.420  11.124 -0.2169 -0.0397 -0.2619
    1ACE      O    6  17.055  16.412  11.019 -0.4852 -0.5619  1.0057
    2ALA      N    7  17.089  16.505  11.219  0.1846 -0.1214 -0.1711
    2ALA      H    8  17.147  16.497  11.302  0.7176  1.4239 -0.3705
    2ALA     CA    9  16.985  16.605  11.219  0.7718 -0.5010 -0.3387
    2ALA     HA   10  16.920  16.580  11.302 -1.7256 -0.3793 -2.1681
    2ALA     CB   11  17.058  16.743  11.249 -0.1797 -0.3708  0.3413
    2ALA    HB1   12  17.130  16.766  11.170 -0.0235 -1.7061  0.0612
    2ALA    HB2   13  16.985  16.824  11.246  1.8507  1.5157 -0.4447
    2ALA    HB3   14  17.099  16.746  11.350  2.6110  0.9633 -0.7456
    2ALA      C   15  16.894  16.613  11.096 -0.3904 -0.1105  0.1201
    2ALA      O   16  16.915  16.696  11.005 -0.4174  0.0073  0.2546
    3ALA      N   17  16.790  16.537  11.084  0.1364  0.4722 -0.2160
    3ALA      H   18  16.761  16.538  10.987 -0.3296  1.7538 -0.0873
    3ALA     CA   19  16.718  16.444  11.176  1.1353  0.2547 -0.2629
    3ALA     HA   20  16.753  16.442  11.279  0.5000 -0.0963 -0.0347
    3ALA     CB   21  16.566  16.492  11.165 -0.3085  0.3159 -0.1226
    3ALA    HB1   22  16.569  16.598  11.189  0.0112  0.5268 -1.0383
    3ALA    HB2   23  16.516  16.473  11.070  0.4268  0.1762 -0.4950
    3ALA    HB3   24  16.502  16.442  11.238 -0.9135 -0.0922 -0.9134
    3ALA      C   25  16.732  16.298  11.131  0.2088  0.3779  0.0209
    3ALA      O   26  16.659  16.214  11.179 -0.2276 -0.2925  0.0411
    4ALA      N   27  16.822  16.264  11.040  0.3786  0.3008 -0.4789
    4ALA      H   28  16.872  16.338  10.993 -0.9966  1.9192  0.5551
    4ALA     CA   29  16.876  16.128  11.013 -0.2178 -0.6842  0.0186
    4ALA     HA   30  16.973  16.151  10.968 -1.3567  0.3356 -2.0824
    4ALA     CB   31  16.903  16.046  11.138 -0.2084 -0.2001  0.3984
    4ALA    HB1   32  16.960  15.957  11.110 -0.9167 -1.0364  1.5319
    4ALA    HB2   33  16.949  16.102  11.220 -2.0901 -0.0307  1.3967
    4ALA    HB3   34  16.814  16.016  11.194 -1.9679  0.4790 -1.8938
    4ALA      C   35  16.793  16.044  10.914  0.3443  0.2339  0.8521
    4ALA      O   36  16.852  15.980  10.823 -0.4117 -0.4032  0.3932
    5NME      N   37  16.663  16.050  10.921  0.2836 -0.4640 -0.5140
    5NME      H   38  16.630  16.099  11.004  2.4287 -0.1488  0.2028
    5NME    CH3   39  16.581  15.948  10.857  0.6603  1.2037  0.2914
    5NME   HH31   40  16.557  15.873  10.932  1.1553  1.3880  0.6403
    5NME   HH32   41  16.489  15.985  10.813 -1.1506 -0.4471  2.4201
    5NME   HH33   42  16.638  15.902  10.777 -0.0575  0.6479  0.0838
  20.91516  20.91516  20.91516
