Protein
   42
    1ACE   HH31    1  11.973  13.944   6.902 -0.6801  1.6052 -0.5824
    1ACE    CH3    2  11.978  13.964   7.009  0.5993 -0.2304 -0.2284
    1ACE   HH32    3  11.921  13.891   7.065  0.4733  1.0323  1.3464
    1ACE   HH33    4  11.936  14.063   7.030  0.7021 -0.1521 -0.3864
    1ACE      C    5  12.111  13.973   7.064  0.3455 -0.7452  0.1759
    1ACE      O    6  12.152  14.079   7.096 -0.2381 -0.4445 -0.3273
    2ALA      N    7  12.172  13.858   7.088 -0.4903  0.0664  0.2059
    2ALA      H    8  12.128  13.777   7.046  0.4786 -0.1634 -0.3900
    2ALA     CA    9  12.312  13.841   7.137 -0.3251  0.7143 -0.4484
    2ALA     HA   10  12.307  13.766   7.216  0.6476  0.5019 -0.5752
    2ALA     CB   11  12.403  13.771   7.025  0.1190  0.3378  0.2492
    2ALA    HB1   12  12.395  13.833   6.935  0.0859 -0.2257 -0.1419
    2ALA    HB2   13  12.509  13.767   7.050  0.2060  1.0905  0.0271
    2ALA    HB3   14  12.361  13.672   7.006  1.7727 -0.7628  2.0097
    2ALA      C   15  12.388  13.964   7.191  0.8794  0.5041 -0.4820
    2ALA      O   16  12.403  13.973   7.314 -0.1978 -0.6782  0.9569
    3ALA      N   17  12.442  14.044   7.101 -0.2669  0.1660 -0.3564
    3ALA      H   18  12.442  14.012   7.005  1.4848 -1.6025  0.1612
    3ALA     CA   19  12.498  14.176   7.129  0.2495 -0.1274 -0.0358
    3ALA     HA   20  12.606  14.160   7.129  0.4533  1.1914 -0.2221
    3ALA     CB   21  12.474  14.260   7.002  0.5617  0.4168  0.1264
    3ALA    HB1   22  12.366  14.271   6.997  0.3545 -1.5630 -0.2413
    3ALA    HB2   23  12.530  14.354   7.010  2.6967  0.0548 -5.5442
    3ALA    HB3   24  12.509  14.204   6.915  2.5253 -0.0895  1.1823
    3ALA      C   25  12.457  14.247   7.264  0.3062  0.2922 -0.3592
    3ALA      O   26  12.548  14.261   7.347 -0.0213  0.6436  0.0561
    4ALA      N   27  12.322  14.264   7.286 -0.1568  0.1908 -0.0490
    4ALA      H   28  12.251  14.230   7.224 -0.7413  1.8596 -0.3265
    4ALA     CA   29  12.272  14.324   7.409  0.1601 -0.3869 -0.4491
    4ALA     HA   30  12.361  14.353   7.465  0.5719 -0.6638 -0.9484
    4ALA     CB   31  12.189  14.452   7.368  0.6315 -0.2060 -0.4472
    4ALA    HB1   32  12.119  14.411   7.295  1.0546 -1.8058 -0.0045
    4ALA    HB2   33  12.144  14.493   7.459  0.7389  2.3051 -1.4494
    4ALA    HB3   34  12.255  14.522   7.317  0.3493  2.1668  2.1900
    4ALA      C   35  12.204  14.224   7.507  0.2659  0.4366  0.5589
    4ALA      O   36  12.149  14.271   7.605 -0.2015 -0.0893 -0.9781
    5NME      N   37  12.204  14.094   7.486 -0.1719 -0.0397 -0.2246
    5NME      H   38  12.269  14.059   7.417 -2.1169 -0.3393 -1.9804
    5NME    CH3   39  12.108  13.995   7.533 -0.0387 -0.2051 -0.3290
    5NME   HH31   40  12.016  14.006   7.476  0.3844  1.8512 -0.7027
    5NME   HH32   41  12.150  13.897   7.511  0.3805 -0.2175  0.4933
    5NME   HH33   42  12.096  14.015   7.639  0.7879  2.4811 -0.6737
  20.91516  20.91516  20.91516
