Protein
   32
    1ACE   HH31    1  12.299  10.996  11.067 -2.1635 -0.1896  0.7344
    1ACE    CH3    2  12.278  11.013  10.961  0.6818  0.2315  0.1521
    1ACE   HH32    3  12.173  10.995  10.940  0.3146  0.6072  1.5201
    1ACE   HH33    4  12.345  10.949  10.905 -0.3970 -1.3780  0.6311
    1ACE      C    5  12.305  11.150  10.926  0.5602  0.5151 -0.1284
    1ACE      O    6  12.273  11.179  10.812 -0.0436 -0.3035 -0.5069
    2ALA      N    7  12.346  11.231  11.018 -0.0664  0.0865  0.2717
    2ALA      H    8  12.372  11.191  11.107  1.3162 -1.3173 -0.7257
    2ALA     CA    9  12.388  11.370  10.999 -1.3631  0.1630 -0.3872
    2ALA     HA   10  12.411  11.398  10.897  0.6517  1.7470  0.4486
    2ALA     CB   11  12.292  11.479  11.038 -0.5834  0.3008 -0.5157
    2ALA    HB1   12  12.198  11.483  10.983 -2.0484  1.3779  1.8711
    2ALA    HB2   13  12.282  11.471  11.146  0.2339 -1.2390 -0.5291
    2ALA    HB3   14  12.333  11.578  11.022 -0.0433  0.4972  1.7805
    2ALA      C   15  12.524  11.403  11.068 -0.2506 -0.1421 -0.1447
    2ALA      O   16  12.568  11.325  11.147 -0.2473  0.3353  0.1170
    3ALA      N   17  12.600  11.509  11.032 -0.4007  0.2638 -0.0561
    3ALA      H   18  12.574  11.569  10.955 -0.1721  0.7642  0.2493
    3ALA     CA   19  12.730  11.530  11.090 -0.5752  0.3613 -0.3475
    3ALA     HA   20  12.777  11.598  11.019 -0.1412  0.3032 -0.1224
    3ALA     CB   21  12.731  11.612  11.213 -0.3309  0.2152 -0.7643
    3ALA    HB1   22  12.674  11.572  11.297  0.1114 -0.2770 -0.7028
    3ALA    HB2   23  12.830  11.640  11.248 -0.6821  0.3883  0.1183
    3ALA    HB3   24  12.686  11.706  11.180  0.6177 -0.3824 -4.0221
    3ALA      C   25  12.833  11.414  11.082  0.2582  0.0302  0.4358
    3ALA      O   26  12.894  11.385  10.976 -0.3362 -0.0384  0.0342
    4NME      N   27  12.862  11.340  11.185  0.2346  0.0025  0.0815
    4NME      H   28  12.814  11.359  11.272  1.7027 -1.7096  1.3851
    4NME    CH3   29  12.979  11.250  11.200  0.3294 -0.4590  0.2364
    4NME   HH31   30  12.938  11.160  11.247 -2.8372  1.4438  1.4714
    4NME   HH32   31  13.026  11.227  11.105  2.0318  0.5281  0.7991
    4NME   HH33   32  13.057  11.291  11.264 -0.9590  0.9936  0.9480
  20.99041  20.99041  20.99041
