Protein
   42
    1ACE   HH31    1   6.388  19.135   6.726 -2.6196 -1.6257 -0.6355
    1ACE    CH3    2   6.326  19.167   6.809 -0.1701  0.3539  0.6096
    1ACE   HH32    3   6.306  19.274   6.812 -1.6881  0.1236  2.5996
    1ACE   HH33    4   6.377  19.141   6.902  1.1916 -0.3122 -0.2910
    1ACE      C    5   6.194  19.090   6.807 -0.3194  0.5772 -0.1730
    1ACE      O    6   6.145  19.054   6.911 -0.3891  0.4447 -1.2295
    2ALA      N    7   6.148  19.048   6.687 -0.1400 -0.2166  0.0133
    2ALA      H    8   6.193  19.090   6.607 -1.9311  0.3310 -0.7606
    2ALA     CA    9   6.028  18.966   6.666 -0.7557  0.3149  0.1301
    2ALA     HA   10   5.996  18.985   6.563  0.6393  2.1478 -0.0191
    2ALA     CB   11   6.084  18.824   6.664 -0.0728  0.2754 -0.0981
    2ALA    HB1   12   6.161  18.814   6.587 -0.6281 -0.1464 -0.6094
    2ALA    HB2   13   6.139  18.801   6.756 -2.0818 -3.0543  0.4561
    2ALA    HB3   14   6.002  18.755   6.643 -0.3139  0.3318  0.6140
    2ALA      C   15   5.908  18.987   6.753 -0.0470  0.4277 -0.5471
    2ALA      O   16   5.831  19.075   6.724  0.2345  0.4876  0.4486
    3ALA      N   17   5.888  18.911   6.861  0.0591  0.2600  0.3225
    3ALA      H   18   5.965  18.846   6.872  1.0365  1.1269 -0.9082
    3ALA     CA   19   5.784  18.932   6.954  0.3291 -0.2994  0.3743
    3ALA     HA   20   5.725  19.019   6.928 -1.8803 -2.1494 -1.2152
    3ALA     CB   21   5.687  18.812   6.948 -0.0776  0.2054 -0.2184
    3ALA    HB1   22   5.601  18.813   7.015  1.1914  0.1715  1.5010
    3ALA    HB2   23   5.648  18.816   6.846 -2.2241  0.1142  0.5562
    3ALA    HB3   24   5.731  18.712   6.958 -0.5590 -0.1012 -1.0291
    3ALA      C   25   5.827  18.953   7.098 -1.0021 -0.2721 -0.6662
    3ALA      O   26   5.746  18.962   7.187 -0.7167  0.1032 -0.3898
    4ALA      N   27   5.965  18.957   7.121  0.0333  0.0648  0.1637
    4ALA      H   28   6.026  18.986   7.046 -0.4096  1.2605  0.2280
    4ALA     CA   29   6.036  18.947   7.246 -0.2152 -0.1968  0.3117
    4ALA     HA   30   6.071  18.844   7.254  0.2887 -0.0234  0.4656
    4ALA     CB   31   6.164  19.038   7.241  0.8297  0.3314 -0.2289
    4ALA    HB1   32   6.223  19.002   7.325  2.2200 -2.7027 -2.3375
    4ALA    HB2   33   6.217  19.023   7.147  0.2483 -0.2447 -0.4728
    4ALA    HB3   34   6.127  19.140   7.248  1.1681  0.4055  4.6893
    4ALA      C   35   5.961  18.953   7.381  0.2779 -0.5488  0.4673
    4ALA      O   36   5.986  18.880   7.473  0.2421 -0.1279 -0.0070
    5NME      N   37   5.876  19.057   7.394 -0.8899 -0.3626 -0.0302
    5NME      H   38   5.843  19.103   7.310 -0.1003  0.4860  0.1061
    5NME    CH3   39   5.801  19.083   7.512 -0.6452 -0.4540  0.1631
    5NME   HH31   40   5.843  19.017   7.588 -0.0342  0.3116  0.4955
    5NME   HH32   41   5.823  19.187   7.535 -1.0216 -0.7474  2.0639
    5NME   HH33   42   5.696  19.059   7.495 -0.1766 -3.6269  1.0362
  20.91516  20.91516  20.91516
