Protein
   32
    1ACE   HH31    1  10.773   8.372   9.798  1.0753  0.1451 -2.1601
    1ACE    CH3    2  10.857   8.369   9.867 -0.2665 -0.5945 -0.4745
    1ACE   HH32    3  10.947   8.401   9.814  0.3804 -2.7771 -0.7715
    1ACE   HH33    4  10.862   8.270   9.910  0.8143  0.2400  1.4157
    1ACE      C    5  10.835   8.475   9.976  0.2834 -0.2614  0.0840
    1ACE      O    6  10.913   8.483  10.071  0.0631 -0.2333  0.2554
    2ALA      N    7  10.721   8.546   9.971 -0.0849 -0.2768 -0.3377
    2ALA      H    8  10.665   8.546   9.887 -2.7142  3.2946  1.1565
    2ALA     CA    9  10.680   8.629  10.086 -0.3754 -0.2359 -1.0569
    2ALA     HA   10  10.761   8.697  10.113  0.3794 -0.4184 -2.7529
    2ALA     CB   11  10.560   8.722  10.048  0.4904 -0.1674  0.6652
    2ALA    HB1   12  10.542   8.798  10.124  0.8879  0.6070  0.0073
    2ALA    HB2   13  10.580   8.776   9.956 -0.9573  0.5011  0.7170
    2ALA    HB3   14  10.476   8.658  10.018 -0.3646  1.0771  0.3248
    2ALA      C   15  10.641   8.554  10.214 -0.1739  0.9004  0.3184
    2ALA      O   16  10.530   8.514  10.242  0.5547 -0.3851  0.1821
    3ALA      N   17  10.742   8.546  10.297 -0.2790 -0.7750 -0.6869
    3ALA      H   18  10.830   8.582  10.262 -0.9354  0.2058 -1.3736
    3ALA     CA   19  10.741   8.503  10.435  0.7542  0.8765  0.6522
    3ALA     HA   20  10.703   8.400  10.435  1.3182  0.6629  0.1733
    3ALA     CB   21  10.887   8.499  10.480  0.5779  0.6868 -0.1101
    3ALA    HB1   22  10.914   8.603  10.500 -3.0313  2.0220 -1.3844
    3ALA    HB2   23  10.902   8.447  10.574  1.3052  1.2168  0.0783
    3ALA    HB3   24  10.944   8.447  10.403 -2.2069 -0.1965 -1.6767
    3ALA      C   25  10.644   8.576  10.539 -0.3939 -0.2316  0.4097
    3ALA      O   26  10.688   8.601  10.655  0.7337 -0.0475  0.2729
    4NME      N   27  10.529   8.624  10.497  0.9149 -0.1859 -0.5880
    4NME      H   28  10.496   8.596  10.406 -0.7468  1.4815 -0.5525
    4NME    CH3   29  10.437   8.696  10.585  0.1010 -0.2561 -0.0511
    4NME   HH31   30  10.354   8.727  10.523  0.5068  0.9979 -0.0069
    4NME   HH32   31  10.400   8.638  10.669 -0.5650 -0.9438 -0.8092
    4NME   HH33   32  10.481   8.790  10.618 -1.3832  1.1073 -1.7928
  20.99041  20.99041  20.99041
