Protein
   22
    1ACE   HH31    1   9.866   4.400   5.064 -0.4907 -2.1779 -1.9952
    1ACE    CH3    2   9.924   4.459   4.992  0.5167 -0.4914  0.1050
    1ACE   HH32    3  10.004   4.396   4.954  0.6683  0.0390 -0.4583
    1ACE   HH33    4   9.971   4.548   5.032  1.1535 -0.0217 -1.6077
    1ACE      C    5   9.831   4.502   4.884  0.1384  0.1175 -0.4257
    1ACE      O    6   9.741   4.572   4.921  0.1861  0.3000  0.4131
    2ALA      N    7   9.866   4.453   4.762 -0.0616 -0.9830  0.2474
    2ALA      H    8   9.941   4.385   4.757  1.0981  0.1510  1.5033
    2ALA     CA    9   9.815   4.510   4.637  0.1410  0.5446 -0.2325
    2ALA     HA   10   9.716   4.469   4.616 -0.5237  1.0347  1.6302
    2ALA     CB   11   9.803   4.666   4.643  0.2620  0.2862  0.2697
    2ALA    HB1   12   9.903   4.708   4.655  2.0104 -3.4587  0.1910
    2ALA    HB2   13   9.771   4.701   4.545  1.7344  1.6023  0.2137
    2ALA    HB3   14   9.733   4.697   4.720 -1.1915  2.1844 -1.7015
    2ALA      C   15   9.891   4.476   4.511  0.2313  0.4844 -0.0225
    2ALA      O   16  10.010   4.471   4.514 -0.5371 -0.1467  0.3074
    3NME      N   17   9.819   4.441   4.402  0.9065  1.0838 -0.7564
    3NME      H   18   9.721   4.425   4.418  1.0434  0.8799 -0.0520
    3NME    CH3   19   9.872   4.413   4.272  0.2830  0.1299 -0.5766
    3NME   HH31   20   9.787   4.405   4.204 -1.5820  0.8938  1.5414
    3NME   HH32   21   9.921   4.505   4.240 -1.9633  1.4906 -0.2921
    3NME   HH33   22   9.945   4.332   4.274  0.8393  0.6248  1.8204
  10.72160  10.72160  10.72160
