Protein
   32
    1ACE   HH31    1  10.128   9.430  10.993  1.5261 -0.4465  0.1301
    1ACE    CH3    2  10.196   9.446  10.909  0.7375 -1.0730 -0.6598
    1ACE   HH32    3  10.182   9.355  10.851  1.5017 -1.7798  0.2193
    1ACE   HH33    4  10.299   9.450  10.945  0.4794 -2.0204  0.2477
    1ACE      C    5  10.144   9.573  10.842  0.7944  0.2618 -0.7692
    1ACE      O    6  10.086   9.574  10.738  0.3111  0.0695  0.7522
    2ALA      N    7  10.174   9.691  10.898 -0.6238 -0.2629 -0.4864
    2ALA      H    8  10.232   9.697  10.981 -0.5552 -1.1701 -0.4639
    2ALA     CA    9  10.169   9.814  10.820  0.1116 -0.5788 -0.3804
    2ALA     HA   10  10.088   9.812  10.747 -0.2626  0.1386 -0.0126
    2ALA     CB   11  10.124   9.924  10.920 -0.0366 -0.0395 -0.0069
    2ALA    HB1   12  10.084  10.009  10.865  0.4172  1.0853  1.3235
    2ALA    HB2   13  10.044   9.878  10.977 -0.6405 -0.0857 -0.8759
    2ALA    HB3   14  10.202   9.960  10.987  0.9220  0.1773 -1.1798
    2ALA      C   15  10.292   9.852  10.740 -0.0077 -0.0538  0.0198
    2ALA      O   16  10.314   9.964  10.701 -0.1550  0.1531 -0.6682
    3ALA      N   17  10.389   9.758  10.731  0.1048 -0.3722  0.9464
    3ALA      H   18  10.365   9.668  10.770  1.2913 -1.5302 -0.8843
    3ALA     CA   19  10.519   9.778  10.679 -0.1011 -0.0178 -0.5099
    3ALA     HA   20  10.513   9.856  10.604 -1.9775  2.2102  1.7821
    3ALA     CB   21  10.611   9.833  10.786 -0.1558  0.4056  0.3984
    3ALA    HB1   22  10.710   9.849  10.744 -0.1612  0.2281  0.3111
    3ALA    HB2   23  10.573   9.930  10.817  3.6727  1.4355  2.5597
    3ALA    HB3   24  10.605   9.763  10.870 -0.8698  1.3594  1.1721
    3ALA      C   25  10.583   9.649  10.620  0.2799  0.0001  0.2231
    3ALA      O   26  10.619   9.558  10.695 -0.1222  0.2247  0.2299
    4NME      N   27  10.593   9.647  10.486 -0.7398  0.2997  0.3185
    4NME      H   28  10.547   9.715  10.427 -1.3185 -0.1151  0.2667
    4NME    CH3   29  10.673   9.540  10.428 -0.4981 -0.1304  0.2416
    4NME   HH31   30  10.780   9.561  10.425  0.2484 -3.1943  1.7822
    4NME   HH32   31  10.650   9.454  10.490 -3.2167  0.7684  0.5536
    4NME   HH33   32  10.630   9.524  10.329  0.3411 -4.2688  0.3428
  20.99041  20.99041  20.99041
