Protein
   22
    1ACE   HH31    1   9.383   9.138   7.641 -0.6074 -1.1881 -0.5084
    1ACE    CH3    2   9.281   9.173   7.627 -0.2003 -0.1330 -0.9422
    1ACE   HH32    3   9.268   9.256   7.697  1.1457  0.5494 -1.4761
    1ACE   HH33    4   9.208   9.092   7.638 -0.3038  0.2355  1.4364
    1ACE      C    5   9.267   9.236   7.490  0.1836 -0.1779 -0.1021
    1ACE      O    6   9.232   9.356   7.483  0.2185  0.0883 -0.5550
    2ALA      N    7   9.309   9.158   7.389  0.0087  0.0499  0.2845
    2ALA      H    8   9.356   9.073   7.413  0.1454 -0.1829 -0.7564
    2ALA     CA    9   9.280   9.160   7.247  0.4633  0.3661  1.4285
    2ALA     HA   10   9.370   9.199   7.199 -0.4245  1.3281  0.5009
    2ALA     CB   11   9.265   9.007   7.212 -0.3292 -0.8858  0.0128
    2ALA    HB1   12   9.252   9.010   7.103 -0.7407  2.3543  0.0510
    2ALA    HB2   13   9.355   8.951   7.237 -1.0396 -1.7567  0.7073
    2ALA    HB3   14   9.173   8.962   7.249  0.2516 -1.1133  1.2209
    2ALA      C   15   9.163   9.247   7.193  0.4469  0.3725 -0.5144
    2ALA      O   16   9.067   9.191   7.139 -0.0351  0.4802 -0.0345
    3NME      N   17   9.170   9.383   7.210  0.6030  0.2577  0.0495
    3NME      H   18   9.247   9.410   7.269  0.6889 -0.3933  0.2496
    3NME    CH3   19   9.074   9.485   7.156  0.1372 -0.1709  0.3775
    3NME   HH31   20   9.062   9.564   7.230  0.7545 -0.7260  1.0827
    3NME   HH32   21   9.112   9.527   7.062  0.9648 -2.0771 -0.1710
    3NME   HH33   22   8.975   9.443   7.143  0.4854 -0.4015 -1.9612
  10.72160  10.72160  10.72160
