Protein
   32
    1ACE   HH31    1   7.895  15.377   8.631  0.2918  0.9741  0.3902
    1ACE    CH3    2   7.841  15.387   8.537  0.9815 -0.9577 -0.2568
    1ACE   HH32    3   7.903  15.413   8.452  1.5030  1.1116  0.7138
    1ACE   HH33    4   7.757  15.457   8.538 -0.2457 -2.3548 -0.0679
    1ACE      C    5   7.780  15.252   8.527 -0.8046 -0.2601 -0.2990
    1ACE      O    6   7.851  15.158   8.506 -0.0750 -0.3218  0.3673
    2ALA      N    7   7.651  15.240   8.532  0.5245 -0.0136 -0.7490
    2ALA      H    8   7.610  15.331   8.516  0.6956  0.4012  0.9066
    2ALA     CA    9   7.576  15.109   8.533  0.0718  0.3082  0.4576
    2ALA     HA   10   7.632  15.033   8.588  0.7026 -0.6326 -1.3800
    2ALA     CB   11   7.434  15.136   8.595  0.0615  0.2871  0.6212
    2ALA    HB1   12   7.448  15.171   8.698  0.3174 -0.7646  0.9557
    2ALA    HB2   13   7.385  15.216   8.539  0.4947 -0.2546 -0.5628
    2ALA    HB3   14   7.367  15.050   8.598  0.5726 -0.1080  1.1947
    2ALA      C   15   7.556  15.071   8.384 -0.7157  0.0590  0.4781
    2ALA      O   16   7.549  15.160   8.297  0.3679  0.5644 -1.1990
    3ALA      N   17   7.537  14.942   8.363  0.2206  0.2721 -0.0783
    3ALA      H   18   7.545  14.882   8.444 -1.5943 -0.7133 -0.5655
    3ALA     CA   19   7.490  14.883   8.236 -0.0386 -0.3505 -0.7261
    3ALA     HA   20   7.418  14.959   8.204  1.4859  1.6831  0.4180
    3ALA     CB   21   7.612  14.868   8.140  0.5390 -0.2376 -0.0378
    3ALA    HB1   22   7.578  14.832   8.042 -0.8318  1.7541 -0.3354
    3ALA    HB2   23   7.654  14.967   8.120  0.1277 -0.0089  0.2424
    3ALA    HB3   24   7.699  14.814   8.179  0.3773 -0.3607  0.1537
    3ALA      C   25   7.402  14.757   8.257 -0.3031 -0.3698  0.4002
    3ALA      O   26   7.424  14.686   8.356 -0.1533  0.3667  0.0074
    4NME      N   27   7.315  14.732   8.159 -0.2852 -0.2020 -0.3901
    4NME      H   28   7.297  14.801   8.087 -1.4975 -0.3265 -0.2309
    4NME    CH3   29   7.238  14.610   8.150 -0.9683 -0.2464  0.4536
    4NME   HH31   30   7.179  14.607   8.058 -0.5917  0.6438  0.1676
    4NME   HH32   31   7.309  14.527   8.161 -1.9653 -1.3599 -1.0766
    4NME   HH33   32   7.169  14.601   8.233 -2.0217  1.7178 -0.1589
  20.99041  20.99041  20.99041
