Protein
   32
    1ACE   HH31    1   3.389   9.279  15.476 -0.1086  1.4375  0.2337
    1ACE    CH3    2   3.285   9.283  15.443 -0.0121 -0.2088 -0.3211
    1ACE   HH32    3   3.285   9.260  15.337 -0.8320  2.8927 -1.0717
    1ACE   HH33    4   3.233   9.375  15.468 -0.2382 -0.5440  0.5231
    1ACE      C    5   3.216   9.160  15.507  0.2064  0.5358  0.7739
    1ACE      O    6   3.139   9.181  15.601 -0.1118  0.2087  0.3826
    2ALA      N    7   3.247   9.041  15.461  0.5518 -0.0170  0.1690
    2ALA      H    8   3.311   9.032  15.383  0.2831 -1.7069  0.1049
    2ALA     CA    9   3.182   8.913  15.511 -0.4099 -0.5506  0.1364
    2ALA     HA   10   3.172   8.927  15.619  1.5434 -0.5041  0.3581
    2ALA     CB   11   3.055   8.873  15.437  0.2705 -0.6724  0.4152
    2ALA    HB1   12   2.973   8.941  15.462 -1.8373 -3.4868  1.9167
    2ALA    HB2   13   3.075   8.879  15.330  1.3006 -1.2426  0.5610
    2ALA    HB3   14   3.015   8.775  15.462  1.4894 -0.9192  1.5044
    2ALA      C   15   3.291   8.804  15.491 -0.5760  0.4171  0.0540
    2ALA      O   16   3.379   8.816  15.407 -0.0293 -0.4178  0.1185
    3ALA      N   17   3.275   8.692  15.562  0.7025  0.0935 -0.2189
    3ALA      H   18   3.198   8.687  15.627 -0.0746 -0.2740 -1.1435
    3ALA     CA   19   3.363   8.581  15.557  0.0236  0.2228 -0.3852
    3ALA     HA   20   3.418   8.589  15.463 -0.7106  0.6026 -0.7958
    3ALA     CB   21   3.462   8.573  15.675  0.2778 -0.1642  0.6976
    3ALA    HB1   22   3.533   8.656  15.680  0.6152 -0.5391  2.8436
    3ALA    HB2   23   3.414   8.578  15.773  4.0921  0.0719  2.7646
    3ALA    HB3   24   3.513   8.477  15.676  0.8283  0.1263  0.5727
    3ALA      C   25   3.277   8.450  15.550 -0.7734 -0.2950 -0.2314
    3ALA      O   26   3.160   8.440  15.580  0.6042 -0.5725  0.1113
    4NME      N   27   3.342   8.351  15.510  0.4912  0.6893  0.4964
    4NME      H   28   3.432   8.372  15.470  0.4898  1.2243  0.7593
    4NME    CH3   29   3.283   8.211  15.483 -0.5137  0.3033  0.0185
    4NME   HH31   30   3.176   8.223  15.462 -0.9671 -1.9209  0.7973
    4NME   HH32   31   3.337   8.165  15.400  1.5913 -0.1466  1.5455
    4NME   HH33   32   3.297   8.148  15.571 -1.0784 -1.2704 -0.9755
  20.99041  20.99041  20.99041
