Protein
   42
    1ACE   HH31    1  13.881  17.152   6.628  1.6918  1.9473 -0.9323
    1ACE    CH3    2  13.950  17.073   6.658  0.0220  0.5643 -0.6460
    1ACE   HH32    3  13.957  17.074   6.767 -1.2945  1.5748 -0.5495
    1ACE   HH33    4  14.049  17.075   6.613 -0.0087 -0.8920 -0.8418
    1ACE      C    5  13.898  16.941   6.630 -0.0964 -0.4141 -0.4741
    1ACE      O    6  13.962  16.843   6.673 -0.2477  0.4826  0.4218
    2ALA      N    7  13.794  16.924   6.547 -0.1001 -0.3257 -0.1621
    2ALA      H    8  13.749  17.005   6.508  2.6313  1.4011 -0.0166
    2ALA     CA    9  13.722  16.799   6.515 -0.3044  0.1953 -0.6146
    2ALA     HA   10  13.756  16.715   6.574 -0.3316  0.4532 -0.2307
    2ALA     CB   11  13.580  16.819   6.564  0.0480  0.3247 -0.6262
    2ALA    HB1   12  13.582  16.843   6.670  0.9162 -3.1572  0.2596
    2ALA    HB2   13  13.526  16.899   6.512  1.7565 -0.1035 -3.2524
    2ALA    HB3   14  13.523  16.729   6.542 -0.3014  0.6925 -1.2910
    2ALA      C   15  13.743  16.763   6.366  0.1623 -0.3941  0.2140
    2ALA      O   16  13.660  16.795   6.283  0.8296 -0.6491 -0.3761
    3ALA      N   17  13.843  16.685   6.332 -0.5112  0.0286 -0.0065
    3ALA      H   18  13.846  16.639   6.242 -0.1076 -1.6648  0.8411
    3ALA     CA   19  13.946  16.632   6.418  0.2314 -0.0246 -0.1311
    3ALA     HA   20  13.969  16.695   6.504 -1.2392 -0.8333  0.8932
    3ALA     CB   21  13.908  16.485   6.453 -0.5579  1.0075 -0.0584
    3ALA    HB1   22  13.835  16.478   6.533 -0.6655  0.6022 -0.1893
    3ALA    HB2   23  13.878  16.432   6.363 -2.1880  1.3422  0.2490
    3ALA    HB3   24  13.996  16.436   6.493 -2.6792 -2.8091  0.4311
    3ALA      C   25  14.080  16.615   6.344  0.4251 -0.2166 -0.0507
    3ALA      O   26  14.082  16.574   6.230 -0.5277  0.5773 -0.3894
    4ALA      N   27  14.186  16.640   6.416 -0.0015 -0.0434  0.0239
    4ALA      H   28  14.167  16.668   6.511  2.0668 -1.5147  0.9367
    4ALA     CA   29  14.325  16.606   6.393  0.0071 -0.3577 -0.5861
    4ALA     HA   30  14.373  16.633   6.487 -0.6474  0.5520 -0.4885
    4ALA     CB   31  14.344  16.453   6.384  0.1213 -0.4217 -0.3222
    4ALA    HB1   32  14.315  16.422   6.283 -0.8533  1.0634 -0.5302
    4ALA    HB2   33  14.449  16.434   6.405 -0.2590 -1.5619  0.6001
    4ALA    HB3   34  14.281  16.401   6.456 -1.1444  0.3632 -0.8381
    4ALA      C   35  14.387  16.697   6.285 -0.0249  0.1052 -0.2300
    4ALA      O   36  14.501  16.740   6.287 -0.4369 -0.0448  0.0768
    5NME      N   37  14.318  16.703   6.165  0.0033 -0.1478  0.0687
    5NME      H   38  14.228  16.662   6.147 -0.3977  0.5211  0.5225
    5NME    CH3   39  14.364  16.776   6.052 -0.1341 -0.4365  1.1207
    5NME   HH31   40  14.290  16.791   5.974  0.1726 -0.9825  0.7104
    5NME   HH32   41  14.401  16.874   6.081  1.9992 -0.8349 -0.0967
    5NME   HH33   42  14.453  16.727   6.011 -0.3287 -0.3015  0.5146
  20.91516  20.91516  20.91516
