Protein
   42
    1ACE   HH31    1   2.654  10.636   1.946 -1.2603  0.1452  0.2465
    1ACE    CH3    2   2.698  10.536   1.940 -0.3354  0.5842 -0.7102
    1ACE   HH32    3   2.770  10.524   1.860 -3.6632 -3.4416 -3.4836
    1ACE   HH33    4   2.627  10.454   1.930  2.2648 -2.0092  0.7340
    1ACE      C    5   2.780  10.512   2.065  0.0693  0.8767 -0.7095
    1ACE      O    6   2.731  10.459   2.170  0.0705 -0.3780  0.5234
    2ALA      N    7   2.897  10.575   2.063  0.3854  0.5561  0.8978
    2ALA      H    8   2.910  10.631   1.980 -2.3682  0.3970  0.2570
    2ALA     CA    9   3.006  10.563   2.155 -0.8528 -0.2716 -0.0111
    2ALA     HA   10   2.980  10.491   2.233  1.7929  1.6195  2.8289
    2ALA     CB   11   3.130  10.522   2.078 -0.1583  0.7696  0.1018
    2ALA    HB1   12   3.126  10.423   2.032 -0.4300  0.8507 -0.0458
    2ALA    HB2   13   3.147  10.590   1.994 -1.6924  0.4784 -0.4647
    2ALA    HB3   14   3.212  10.523   2.150 -0.6473 -1.7223  0.7797
    2ALA      C   15   3.017  10.688   2.244 -0.5063  0.8767  0.8430
    2ALA      O   16   3.083  10.780   2.204 -0.1021 -0.3973 -0.1940
    3ALA      N   17   2.940  10.705   2.354  0.1867  0.3537 -0.2310
    3ALA      H   18   2.951  10.796   2.396  0.7044 -0.2555  1.0197
    3ALA     CA   19   2.842  10.618   2.419 -0.6235 -0.1296  0.1229
    3ALA     HA   20   2.823  10.534   2.353 -1.3817  1.5916 -1.9498
    3ALA     CB   21   2.909  10.569   2.549  0.0703  0.1073  0.8930
    3ALA    HB1   22   2.938  10.652   2.613  1.5826  0.2292  0.0934
    3ALA    HB2   23   2.833  10.508   2.598 -0.9567 -0.3170 -1.0925
    3ALA    HB3   24   2.992  10.503   2.525 -1.0324 -2.2317  3.0609
    3ALA      C   25   2.709  10.694   2.437 -0.3393  0.7758  0.3420
    3ALA      O   26   2.709  10.800   2.503  0.4470  0.0490 -0.1858
    4ALA      N   27   2.597  10.638   2.387  0.3318  0.0615 -0.8138
    4ALA      H   28   2.615  10.550   2.340  0.2618  1.6012 -3.9303
    4ALA     CA   29   2.462  10.691   2.394  0.2317 -0.5673 -0.0719
    4ALA     HA   30   2.472  10.789   2.347  2.0899 -0.3402  0.7019
    4ALA     CB   31   2.381  10.604   2.300  0.4795  0.6220 -0.2000
    4ALA    HB1   32   2.277  10.635   2.293  0.0988 -0.8002 -1.3480
    4ALA    HB2   33   2.423  10.594   2.200 -2.7377  1.9513 -1.8345
    4ALA    HB3   34   2.377  10.502   2.339  0.3091  0.3915 -0.7975
    4ALA      C   35   2.400  10.695   2.539  0.1766  0.4904 -0.3934
    4ALA      O   36   2.322  10.605   2.569 -0.0252 -0.0564 -0.3303
    5NME      N   37   2.432  10.802   2.613 -0.3596  0.0497  0.0781
    5NME      H   38   2.495  10.868   2.572  1.5548 -2.9260 -2.1640
    5NME    CH3   39   2.398  10.817   2.753 -0.4522  0.0668  0.1996
    5NME   HH31   40   2.491  10.831   2.808  0.2044  0.4931 -0.9676
    5NME   HH32   41   2.333  10.904   2.763 -0.6534 -0.2894  2.8130
    5NME   HH33   42   2.344  10.728   2.785 -1.2550  0.5807  0.2838
  20.91516  20.91516  20.91516
