Protein
   42
    1ACE   HH31    1   9.301   6.263  14.461 -1.9747 -1.2172  0.4264
    1ACE    CH3    2   9.248   6.281  14.368  0.2613  0.6045 -0.5794
    1ACE   HH32    3   9.306   6.239  14.286  0.0998  1.4763 -1.1554
    1ACE   HH33    4   9.213   6.384  14.356  0.1941  0.6926  0.2673
    1ACE      C    5   9.135   6.185  14.394  0.0669  0.1008 -0.3787
    1ACE      O    6   9.023   6.229  14.420  0.0089  0.3019  0.4252
    2ALA      N    7   9.164   6.054  14.381  0.0915  0.3267  0.1080
    2ALA      H    8   9.262   6.029  14.372  0.0757  0.1455  0.4241
    2ALA     CA    9   9.063   5.955  14.415 -0.4001  0.8677  0.1656
    2ALA     HA   10   8.985   6.004  14.472 -1.1717  1.7414 -1.5573
    2ALA     CB   11   9.004   5.899  14.282  0.3002  0.4421 -0.0002
    2ALA    HB1   12   8.926   5.829  14.311 -1.3358  1.8035 -0.9486
    2ALA    HB2   13   8.967   5.983  14.224 -1.7819 -0.2403  0.2892
    2ALA    HB3   14   9.080   5.844  14.225 -0.7572 -2.1195  0.9323
    2ALA      C   15   9.128   5.850  14.509  0.4694 -0.8932  0.6719
    2ALA      O   16   9.215   5.775  14.463 -0.0080 -0.2333 -1.2009
    3ALA      N   17   9.094   5.841  14.635  0.1583 -0.4630 -0.3458
    3ALA      H   18   9.146   5.764  14.675  0.4815 -2.6097 -4.4153
    3ALA     CA   19   9.026   5.944  14.723 -0.9581  0.3151 -0.6714
    3ALA     HA   20   8.927   5.956  14.677 -1.0291  1.7232 -0.1749
    3ALA     CB   21   9.019   5.888  14.865 -0.0913  0.5337  0.3184
    3ALA    HB1   22   9.121   5.853  14.881 -0.7666 -1.2809  1.0354
    3ALA    HB2   23   8.986   5.963  14.937 -0.0219 -0.5595  1.5328
    3ALA    HB3   24   8.954   5.801  14.874  1.8399 -0.7983  2.7356
    3ALA      C   25   9.084   6.082  14.712 -0.2121 -0.2921 -0.1037
    3ALA      O   26   9.200   6.099  14.665  0.4828 -0.2203 -0.3020
    4ALA      N   27   9.010   6.182  14.764  0.4488  0.4714 -0.2370
    4ALA      H   28   8.924   6.162  14.811  0.1157  3.4631  0.6196
    4ALA     CA   29   9.036   6.321  14.748  0.3048  0.0062  1.1824
    4ALA     HA   30   9.082   6.344  14.652  0.6075 -3.6649  0.2648
    4ALA     CB   31   8.896   6.376  14.751 -0.1709 -0.1478 -0.2474
    4ALA    HB1   32   8.899   6.482  14.723  1.3193 -0.9036 -3.4823
    4ALA    HB2   33   8.823   6.330  14.684  0.3218 -0.9242 -0.2686
    4ALA    HB3   34   8.868   6.371  14.856 -1.5564 -0.9745 -0.6284
    4ALA      C   35   9.137   6.353  14.863 -0.5262 -0.8206 -0.0265
    4ALA      O   36   9.100   6.436  14.942  0.3715 -0.9464  0.3914
    5NME      N   37   9.248   6.279  14.878 -0.9059 -0.6215 -0.0050
    5NME      H   38   9.269   6.204  14.814 -0.5483 -0.1044 -0.5070
    5NME    CH3   39   9.337   6.308  14.989  0.4840 -0.0133 -0.4754
    5NME   HH31   40   9.281   6.283  15.079 -0.4031 -1.1847 -1.3421
    5NME   HH32   41   9.429   6.253  14.970  0.8347 -0.1714  1.4665
    5NME   HH33   42   9.353   6.416  14.988 -0.1711  0.1013 -2.0647
  20.91516  20.91516  20.91516
