Protein
   42
    1ACE   HH31    1  19.829  12.196  11.551 -0.2522 -1.0407 -0.3044
    1ACE    CH3    2  19.758  12.156  11.480 -0.3743 -0.1363 -0.6972
    1ACE   HH32    3  19.762  12.047  11.472 -1.5030 -0.3799  1.3056
    1ACE   HH33    4  19.773  12.203  11.383  0.8646 -0.6662 -0.7727
    1ACE      C    5  19.618  12.197  11.523 -0.2066  0.4092 -0.0435
    1ACE      O    6  19.595  12.240  11.639 -0.0004  0.0998 -0.2750
    2ALA      N    7  19.513  12.179  11.440  0.0201 -0.1170  0.1193
    2ALA      H    8  19.531  12.148  11.345  2.8194  0.3975  0.4034
    2ALA     CA    9  19.372  12.208  11.475 -0.7086 -0.2884  0.0680
    2ALA     HA   10  19.353  12.169  11.576 -1.2125  1.4244  0.6616
    2ALA     CB   11  19.345  12.356  11.481  0.1616  0.3210  0.0574
    2ALA    HB1   12  19.356  12.400  11.382  1.5331  0.6904  0.3542
    2ALA    HB2   13  19.242  12.378  11.509 -0.0035 -0.3109 -0.0303
    2ALA    HB3   14  19.409  12.405  11.553  0.3683 -0.3656  0.3525
    2ALA      C   15  19.277  12.131  11.376 -0.2982 -0.5371 -0.1944
    2ALA      O   16  19.299  12.139  11.255 -0.6029  0.2020 -0.3754
    3ALA      N   17  19.161  12.078  11.415 -0.0849 -0.2160 -0.2839
    3ALA      H   18  19.120  12.026  11.339  0.0068  1.1315 -1.2769
    3ALA     CA   19  19.116  12.038  11.546  0.7093  0.3075  0.3333
    3ALA     HA   20  19.146  12.103  11.629  0.8316  0.4556  0.1796
    3ALA     CB   21  18.966  12.033  11.536 -0.2780  0.2081 -0.3611
    3ALA    HB1   22  18.919  12.006  11.631  1.5437 -1.3467  0.1624
    3ALA    HB2   23  18.929  12.133  11.514 -0.6703  0.2626  0.4749
    3ALA    HB3   24  18.938  11.959  11.461 -3.9500  0.1949  0.8503
    3ALA      C   25  19.183  11.902  11.589  0.0539  0.0059 -0.5690
    3ALA      O   26  19.189  11.882  11.713 -0.3413 -0.1500 -0.3368
    4ALA      N   27  19.229  11.815  11.500  0.0638  0.4548 -0.0939
    4ALA      H   28  19.201  11.832  11.404 -0.7523  0.0726  0.0735
    4ALA     CA   29  19.339  11.723  11.535  0.4586 -0.7191  0.4169
    4ALA     HA   30  19.291  11.665  11.614  1.2412 -0.1152  1.3621
    4ALA     CB   31  19.382  11.630  11.416 -0.3539 -1.1404  0.1034
    4ALA    HB1   32  19.441  11.692  11.348  1.1864 -1.9646  0.6253
    4ALA    HB2   33  19.443  11.545  11.447 -1.4866 -2.4804 -1.1387
    4ALA    HB3   34  19.302  11.583  11.358 -0.0430 -0.2304 -1.1050
    4ALA      C   35  19.461  11.811  11.586 -0.5606  0.2306  0.1766
    4ALA      O   36  19.494  11.905  11.521 -0.1356 -0.0185  0.4269
    5NME      N   37  19.529  11.761  11.692 -0.3156  0.0554 -0.1298
    5NME      H   38  19.491  11.687  11.749 -0.5654  1.5449  1.7677
    5NME    CH3   39  19.653  11.820  11.740 -0.3754 -0.8174  0.6282
    5NME   HH31   40  19.648  11.889  11.824  0.0428  0.8242 -0.6498
    5NME   HH32   41  19.729  11.748  11.772  0.9767 -0.3754 -1.4169
    5NME   HH33   42  19.703  11.868  11.656  0.1098 -2.0120  0.2106
  20.91516  20.91516  20.91516
