Protein
   42
    1ACE   HH31    1  15.677  13.937  10.202  0.5708 -0.4476  0.8179
    1ACE    CH3    2  15.708  13.864  10.128  0.1552 -0.1045  0.2997
    1ACE   HH32    3  15.802  13.893  10.081  1.1853 -0.4785  2.0562
    1ACE   HH33    4  15.630  13.864  10.052  1.1345  0.7809 -0.7403
    1ACE      C    5  15.722  13.724  10.183  0.3903 -0.1670 -0.2214
    1ACE      O    6  15.831  13.669  10.163  0.4937 -0.7142 -0.8235
    2ALA      N    7  15.613  13.672  10.244 -0.4052  0.4903 -0.1614
    2ALA      H    8  15.530  13.729  10.241 -0.8512 -0.1726 -2.3190
    2ALA     CA    9  15.593  13.541  10.296 -0.2506 -0.0279  0.1723
    2ALA     HA   10  15.667  13.476  10.250 -0.7302  0.6625 -1.6313
    2ALA     CB   11  15.623  13.535  10.445  0.6358 -0.1313  0.5392
    2ALA    HB1   12  15.547  13.592  10.499  0.0254 -0.3886 -0.0199
    2ALA    HB2   13  15.619  13.435  10.487 -1.8402  0.7256  2.6387
    2ALA    HB3   14  15.723  13.571  10.470  1.0752 -1.6876  1.0936
    2ALA      C   15  15.447  13.491  10.263  0.0015 -0.2765 -0.2433
    2ALA      O   16  15.354  13.559  10.298  0.9927  0.2489 -0.5021
    3ALA      N   17  15.420  13.379  10.203  0.5719  0.1555  0.5088
    3ALA      H   18  15.323  13.356  10.185  0.8602 -1.3283  0.7046
    3ALA     CA   19  15.515  13.279  10.169 -0.3768 -0.6317 -0.6182
    3ALA     HA   20  15.596  13.293  10.240 -0.2247 -1.2302 -0.6651
    3ALA     CB   21  15.448  13.143  10.190  0.0241  0.3399 -0.0518
    3ALA    HB1   22  15.425  13.127  10.295 -0.4739  0.6390 -0.1180
    3ALA    HB2   23  15.353  13.145  10.137 -0.3352  2.2545  0.5899
    3ALA    HB3   24  15.505  13.054  10.163 -1.4153  0.0630 -2.3963
    3ALA      C   25  15.581  13.297  10.028  0.1335 -0.3189  0.1597
    3ALA      O   26  15.631  13.194   9.978  0.5704 -0.2268 -0.0705
    4ALA      N   27  15.578  13.420   9.976 -0.4007 -0.5428 -0.0218
    4ALA      H   28  15.533  13.495  10.027  3.3239  1.5770  0.4912
    4ALA     CA   29  15.625  13.452   9.844 -0.0189  0.2311 -0.2036
    4ALA     HA   30  15.731  13.432   9.831  0.3554  1.7304  0.3222
    4ALA     CB   31  15.548  13.380   9.744 -0.0276 -0.3457  0.0676
    4ALA    HB1   32  15.444  13.414   9.742  1.0280  3.2080 -0.9724
    4ALA    HB2   33  15.595  13.408   9.650  0.5757 -1.3659  0.0619
    4ALA    HB3   34  15.556  13.272   9.739  0.0938 -0.2870 -1.4616
    4ALA      C   35  15.604  13.599   9.821 -0.3771 -0.4504 -0.3343
    4ALA      O   36  15.513  13.667   9.873  0.2555  0.3335  0.1664
    5NME      N   37  15.695  13.652   9.741 -0.1934 -0.0935 -0.4587
    5NME      H   38  15.765  13.589   9.704 -0.5769 -0.1283 -1.1490
    5NME    CH3   39  15.713  13.798   9.726  0.9985  0.0564 -0.2089
    5NME   HH31   40  15.615  13.841   9.706  0.6344 -1.0894 -0.9665
    5NME   HH32   41  15.751  13.836   9.820 -0.4322 -0.1413  0.4820
    5NME   HH33   42  15.775  13.825   9.640  0.5333  2.4532  0.1415
  20.91516  20.91516  20.91516
