Protein
   42
    1ACE   HH31    1   3.017   9.191   8.684 -0.8143  0.0066  0.0896
    1ACE    CH3    2   3.015   9.093   8.637 -0.0929  0.1932 -0.3245
    1ACE   HH32    3   2.979   9.103   8.534 -2.2650 -1.6606  0.1456
    1ACE   HH33    4   2.952   9.023   8.691  2.0741 -1.2277  0.5227
    1ACE      C    5   3.156   9.039   8.652  0.4662 -0.3741 -0.1509
    1ACE      O    6   3.212   8.981   8.559 -0.2001  0.1552  0.5083
    2ALA      N    7   3.211   9.059   8.772  0.0858  1.1936 -0.2227
    2ALA      H    8   3.153   9.091   8.849  1.3304  0.1384  1.2309
    2ALA     CA    9   3.339   8.997   8.803 -0.1900  0.6364 -0.2641
    2ALA     HA   10   3.356   8.911   8.738 -4.3802 -0.8656  0.3498
    2ALA     CB   11   3.448   9.101   8.777 -0.3159 -0.7686 -0.2770
    2ALA    HB1   12   3.442   9.143   8.676  3.5559 -1.4658 -0.9610
    2ALA    HB2   13   3.429   9.190   8.838 -0.1757 -1.3431  0.6168
    2ALA    HB3   14   3.550   9.062   8.780 -0.4945 -1.1875  0.8004
    2ALA      C   15   3.340   8.935   8.946  0.2333 -0.0181 -0.1619
    2ALA      O   16   3.234   8.905   8.995  0.5015 -0.3526 -0.2416
    3ALA      N   17   3.456   8.932   9.014  0.2783  0.3401 -0.8172
    3ALA      H   18   3.539   8.946   8.958  1.3362  0.0697  0.6400
    3ALA     CA   19   3.457   8.906   9.164  0.7016  0.2751 -0.2386
    3ALA     HA   20   3.556   8.936   9.200 -0.5322  2.1845  1.6970
    3ALA     CB   21   3.355   8.988   9.245  0.0280 -1.3160  0.0987
    3ALA    HB1   22   3.252   8.965   9.219  0.3472 -0.3606 -2.2717
    3ALA    HB2   23   3.367   8.972   9.353 -1.3152 -1.8772  0.1751
    3ALA    HB3   24   3.386   9.091   9.228 -2.1930 -0.5537  0.3546
    3ALA      C   25   3.463   8.753   9.182 -0.5303  0.8976  0.6932
    3ALA      O   26   3.523   8.686   9.095 -0.3445 -0.1159 -0.2879
    4ALA      N   27   3.407   8.697   9.287 -0.4720  0.7255 -0.1066
    4ALA      H   28   3.349   8.762   9.340 -0.2179 -0.7875  2.1558
    4ALA     CA   29   3.394   8.558   9.308  0.0079  0.6589 -0.5453
    4ALA     HA   30   3.486   8.506   9.279 -1.4131 -1.6467 -1.1456
    4ALA     CB   31   3.380   8.544   9.456 -0.3135 -0.2497  0.8094
    4ALA    HB1   32   3.466   8.590   9.505  0.3834 -0.1904 -0.4416
    4ALA    HB2   33   3.288   8.578   9.503  0.3357  0.7276  1.3931
    4ALA    HB3   34   3.382   8.437   9.477  0.2200 -0.3486  0.2763
    4ALA      C   35   3.280   8.486   9.219 -0.7731 -0.5023  0.7444
    4ALA      O   36   3.253   8.375   9.252  0.5261 -0.5289  0.5891
    5NME      N   37   3.230   8.556   9.113  0.1131 -0.1233 -0.0249
    5NME      H   38   3.257   8.653   9.109 -1.2098  0.4236  2.5931
    5NME    CH3   39   3.134   8.502   9.013 -0.1335 -0.0701 -0.3319
    5NME   HH31   40   3.138   8.395   9.033  0.9279  0.0682  0.2737
    5NME   HH32   41   3.034   8.541   9.032  0.0566 -0.2638  1.1471
    5NME   HH33   42   3.163   8.517   8.909 -0.7183 -0.4200 -0.5543
  20.91516  20.91516  20.91516
