Protein
   42
    1ACE   HH31    1  11.298  13.518  15.194 -0.1420  1.5724 -1.3826
    1ACE    CH3    2  11.401  13.551  15.203  0.3284 -0.1870  0.3832
    1ACE   HH32    3  11.402  13.622  15.285 -0.2621 -1.3347  1.4133
    1ACE   HH33    4  11.431  13.581  15.102 -0.1662 -1.3211 -0.1335
    1ACE      C    5  11.492  13.434  15.247 -0.0860 -0.3996 -0.2635
    1ACE      O    6  11.444  13.326  15.287 -0.2376  0.2952  0.1792
    2ALA      N    7  11.623  13.456  15.239 -0.2097 -0.2983  0.3473
    2ALA      H    8  11.651  13.553  15.232  0.8561 -0.4845  1.7949
    2ALA     CA    9  11.722  13.353  15.235 -0.2374 -0.4851  0.4004
    2ALA     HA   10  11.676  13.266  15.188  0.6465 -1.1428  0.7117
    2ALA     CB   11  11.835  13.412  15.145 -0.9819 -0.5572  0.2483
    2ALA    HB1   12  11.921  13.347  15.129  1.6435  2.2110  2.1165
    2ALA    HB2   13  11.795  13.444  15.048  0.3175 -4.0709 -1.6621
    2ALA    HB3   14  11.881  13.495  15.198 -1.0566  0.6311 -1.4569
    2ALA      C   15  11.775  13.328  15.382 -0.3680 -0.2855  0.9347
    2ALA      O   16  11.851  13.412  15.436  0.5750  0.0648 -0.7763
    3ALA      N   17  11.738  13.215  15.445 -0.4511 -0.4142  0.6616
    3ALA      H   18  11.773  13.194  15.537 -1.4494  0.2186  1.2156
    3ALA     CA   19  11.664  13.100  15.384  0.6118  0.0819 -0.2169
    3ALA     HA   20  11.602  13.124  15.298  0.7931 -0.1298 -0.4084
    3ALA     CB   21  11.773  13.003  15.344 -0.2690 -0.5098 -0.3227
    3ALA    HB1   22  11.818  12.954  15.430 -1.6445 -3.4292 -1.1467
    3ALA    HB2   23  11.723  12.926  15.285  0.9331 -2.2677  0.8517
    3ALA    HB3   24  11.858  13.041  15.287 -0.5624 -0.2341 -0.5874
    3ALA      C   25  11.561  13.050  15.489 -0.4299  1.0341  0.2385
    3ALA      O   26  11.605  12.982  15.582  0.0954  0.5231 -1.1620
    4ALA      N   27  11.435  13.094  15.483  0.2334  0.0413  0.0419
    4ALA      H   28  11.420  13.180  15.433 -1.1332  0.8542  1.8039
    4ALA     CA   29  11.329  13.059  15.581 -0.4716 -0.0207 -0.2725
    4ALA     HA   30  11.240  13.106  15.540  0.3210  0.3079 -1.7218
    4ALA     CB   31  11.295  12.908  15.592  0.4859  0.3492  0.3241
    4ALA    HB1   32  11.367  12.843  15.641  0.0404 -0.2163  0.2639
    4ALA    HB2   33  11.207  12.881  15.651  1.2462 -1.0505  0.8958
    4ALA    HB3   34  11.279  12.868  15.491  0.7008 -0.7383  0.7046
    4ALA      C   35  11.342  13.137  15.717 -0.5882  0.4765 -0.1308
    4ALA      O   36  11.236  13.173  15.757 -0.0604 -0.5726  0.0518
    5NME      N   37  11.463  13.153  15.782  0.1427 -0.4117  0.2640
    5NME      H   38  11.542  13.106  15.741 -1.2674 -4.2151  1.5198
    5NME    CH3   39  11.486  13.230  15.903 -0.5161  0.1839 -0.5306
    5NME   HH31   40  11.573  13.192  15.957 -0.8878 -0.4573 -0.3681
    5NME   HH32   41  11.516  13.332  15.879  1.9450 -0.7639 -1.8384
    5NME   HH33   42  11.396  13.219  15.964 -0.2856  1.7818  0.1483
  20.91516  20.91516  20.91516
