Protein
   42
    1ACE   HH31    1   4.221  16.345  18.756  0.1637 -0.7102  0.0294
    1ACE    CH3    2   4.254  16.343  18.652 -0.2890  0.6337 -0.1574
    1ACE   HH32    3   4.236  16.443  18.615 -0.7051 -0.0274 -1.8028
    1ACE   HH33    4   4.191  16.267  18.605  1.2905 -0.4543 -0.5842
    1ACE      C    5   4.398  16.311  18.631 -0.4413  0.4879  0.1086
    1ACE      O    6   4.429  16.229  18.551  0.3379 -0.3662  0.0835
    2ALA      N    7   4.485  16.371  18.720  0.6924 -0.9670  0.7729
    2ALA      H    8   4.448  16.449  18.772  2.0516  0.6583 -0.5515
    2ALA     CA    9   4.631  16.340  18.728 -0.0488 -0.8324  0.2673
    2ALA     HA   10   4.669  16.390  18.817  0.0139  1.7034 -1.0954
    2ALA     CB   11   4.658  16.187  18.748  0.0739 -0.4059 -0.2794
    2ALA    HB1   12   4.767  16.185  18.758  0.0138 -0.9818  0.2752
    2ALA    HB2   13   4.606  16.171  18.843  3.7004  1.5302  2.2766
    2ALA    HB3   14   4.626  16.122  18.667 -0.7345 -0.1290 -0.2013
    2ALA      C   15   4.706  16.406  18.609  0.6011  0.3842  0.4314
    2ALA      O   16   4.790  16.484  18.646  0.7130  0.2304  0.2112
    3ALA      N   17   4.669  16.378  18.482  0.2930  0.7339  0.2624
    3ALA      H   18   4.588  16.320  18.472 -0.0565  1.0936  0.9482
    3ALA     CA   19   4.704  16.442  18.356  0.3167 -0.3497  0.5254
    3ALA     HA   20   4.677  16.364  18.285 -0.6412  1.2804 -0.9902
    3ALA     CB   21   4.603  16.558  18.331 -0.0699  0.2785  0.4102
    3ALA    HB1   22   4.625  16.603  18.234 -1.0976 -1.6068 -0.7496
    3ALA    HB2   23   4.501  16.521  18.336  0.3972 -0.8896  1.5621
    3ALA    HB3   24   4.613  16.632  18.411  2.7300  0.1253  0.2954
    3ALA      C   25   4.854  16.482  18.327  0.3042  0.6349  0.0645
    3ALA      O   26   4.886  16.548  18.225  0.4706  0.4189 -0.5790
    4ALA      N   27   4.951  16.465  18.418  0.7434 -0.4561 -0.6826
    4ALA      H   28   4.916  16.408  18.494 -0.5364 -0.0937 -0.9835
    4ALA     CA   29   5.083  16.538  18.433  0.8076 -0.3414 -0.2155
    4ALA     HA   30   5.075  16.645  18.414  3.4462  0.2494  1.5026
    4ALA     CB   31   5.119  16.521  18.582  0.1069  0.0941 -0.7758
    4ALA    HB1   32   5.121  16.414  18.603  1.3346  0.0571 -1.0142
    4ALA    HB2   33   5.221  16.550  18.606  0.0162  0.8806 -1.2757
    4ALA    HB3   34   5.047  16.567  18.650 -0.2011 -1.4323 -0.0331
    4ALA      C   35   5.189  16.472  18.341 -0.0209 -0.0798 -0.8108
    4ALA      O   36   5.296  16.426  18.380 -0.0525  0.0557  0.1573
    5NME      N   37   5.156  16.471  18.204 -0.1610 -0.1237 -0.5725
    5NME      H   38   5.074  16.527  18.185 -0.4012  1.6890  4.5446
    5NME    CH3   39   5.261  16.431  18.111 -0.2635  0.0609 -0.0485
    5NME   HH31   40   5.273  16.323  18.113 -0.5979 -0.0066  2.4293
    5NME   HH32   41   5.231  16.472  18.015 -0.9699  0.4695  0.3426
    5NME   HH33   42   5.349  16.490  18.139 -0.4192 -0.1927  1.0594
  20.91516  20.91516  20.91516
