Protein
   60
    1ACE   HH31    1  21.881  23.756  22.648  0.3897  0.3605 -0.3032
    1ACE    CH3    2  21.904  23.812  22.557  0.5114  0.8856  0.0546
    1ACE   HH32    3  21.839  23.898  22.540  0.3168  0.4108 -1.7545
    1ACE   HH33    4  22.008  23.844  22.546  0.6518  0.2928 -0.3695
    1ACE      C    5  21.863  23.713  22.445  0.1972  0.1953 -0.0215
    1ACE      O    6  21.753  23.710  22.403  0.1214  0.6514  0.6542
    2TRP      N    7  21.957  23.631  22.393 -0.2722  0.0596 -0.1482
    2TRP      H    8  21.927  23.556  22.332 -0.8783  0.6666 -0.5984
    2TRP     CA    9  22.103  23.638  22.432  0.1950  1.0202 -0.3318
    2TRP     HA   10  22.101  23.635  22.541 -1.3891  1.4185 -0.3316
    2TRP     CB   11  22.159  23.497  22.403  0.3447  0.2219 -0.7139
    2TRP    HB1   12  22.109  23.425  22.468 -1.3306  0.4814 -1.6449
    2TRP    HB2   13  22.259  23.500  22.445 -1.3793  1.7728  3.8612
    2TRP     CG   14  22.154  23.430  22.270  0.0945  0.2905  0.4395
    2TRP    CD1   15  22.241  23.440  22.167 -0.3143 -0.8622  0.2156
    2TRP    HD1   16  22.332  23.499  22.161 -0.8635  0.2432  1.9172
    2TRP    NE1   17  22.186  23.364  22.064  0.2468  0.0540  0.0337
    2TRP    HE1   18  22.229  23.360  21.973 -1.1895 -4.9801 -0.6987
    2TRP    CE2   19  22.066  23.306  22.091  0.3985 -0.8451 -0.0284
    2TRP    CZ2   20  21.974  23.234  22.013  0.4011  0.8853 -0.7113
    2TRP    HZ2   21  22.004  23.202  21.914  1.1967 -0.9095  0.0844
    2TRP    CH2   22  21.859  23.187  22.081  1.1064  0.0318 -0.2070
    2TRP    HH2   23  21.799  23.114  22.028  2.1463 -0.1480 -1.1779
    2TRP    CZ3   24  21.836  23.218  22.213 -0.0392  0.3660 -0.1007
    2TRP    HZ3   25  21.744  23.181  22.255  0.1898 -1.8396 -1.3800
    2TRP    CE3   26  21.921  23.302  22.286  0.5803  0.6181  0.1495
    2TRP    HE3   27  21.896  23.313  22.390 -1.2650 -1.1256 -0.0599
    2TRP    CD2   28  22.039  23.346  22.226 -0.0009 -0.2570  0.0045
    2TRP      C   29  22.196  23.752  22.389 -0.0606  0.8995 -0.5497
    2TRP      O   30  22.260  23.809  22.476  0.3093  0.8065 -0.1071
    3TRP      N   31  22.195  23.802  22.265  0.2071 -0.5860 -0.1505
    3TRP      H   32  22.248  23.887  22.258 -0.4019 -0.0727  1.1136
    3TRP     CA   33  22.112  23.761  22.145  0.4965 -0.8895 -0.0906
    3TRP     HA   34  22.075  23.659  22.143  0.7348 -0.9824  0.1420
    3TRP     CB   35  22.189  23.762  22.014 -0.2458 -0.6442  0.1617
    3TRP    HB1   36  22.179  23.866  21.980 -0.7738 -1.1439 -1.2809
    3TRP    HB2   37  22.295  23.744  22.031 -0.4330 -1.0602  0.8904
    3TRP     CG   38  22.149  23.677  21.890 -0.8356 -0.3277 -0.0353
    3TRP    CD1   39  22.034  23.695  21.820  1.0850 -0.1672  0.5859
    3TRP    HD1   40  21.956  23.766  21.843  1.9060  0.9441 -0.0077
    3TRP    NE1   41  22.029  23.603  21.719 -0.4506 -0.1907  0.4424
    3TRP    HE1   42  21.962  23.600  21.643  0.4532  1.5539 -0.4766
    3TRP    CE2   43  22.143  23.526  21.711  0.4162  0.1182  0.4699
    3TRP    CZ2   44  22.187  23.426  21.618 -0.3396 -0.0502  0.0514
    3TRP    HZ2   45  22.129  23.409  21.529  0.6481  1.1458 -0.8523
    3TRP    CH2   46  22.311  23.370  21.649 -0.3221  0.5662  0.5840
    3TRP    HH2   47  22.356  23.295  21.586 -0.6356 -0.5115  1.6155
    3TRP    CZ3   48  22.389  23.403  21.760 -0.2366  0.7092 -0.1901
    3TRP    HZ3   49  22.480  23.349  21.782 -0.8374 -0.8006 -1.3114
    3TRP    CE3   50  22.337  23.504  21.842  0.5982 -0.6682  0.3506
    3TRP    HE3   51  22.394  23.543  21.925 -0.8724 -0.5635  1.3325
    3TRP    CD2   52  22.216  23.567  21.822 -0.3567 -1.0741  1.1917
    3TRP      C   53  21.983  23.844  22.141  0.1583 -0.6602  0.3535
    3TRP      O   54  21.985  23.966  22.166  0.4019  0.1748 -0.5736
    4NME      N   55  21.866  23.780  22.114 -0.4327  0.7778 -0.0953
    4NME      H   56  21.868  23.680  22.101 -0.1958  0.9135 -1.2945
    4NME    CH3   57  21.738  23.841  22.083  0.2681  0.3110 -0.3171
    4NME   HH31   58  21.676  23.770  22.029 -0.5585 -0.0851  1.0895
    4NME   HH32   59  21.683  23.870  22.173 -1.3358 -1.1505 -0.7633
    4NME   HH33   60  21.735  23.927  22.017 -3.4303  1.8804  1.6041
  41.12396  41.12396  41.12396
