Protein
   42
    1ACE   HH31    1   7.156   4.794  12.845 -1.4745  1.6574  1.6435
    1ACE    CH3    2   7.223   4.779  12.930  0.9046  0.6900 -0.2787
    1ACE   HH32    3   7.263   4.678  12.925 -1.7695 -0.4967  0.5188
    1ACE   HH33    4   7.166   4.812  13.017 -2.8046  0.1392 -2.3233
    1ACE      C    5   7.331   4.884  12.912 -0.4080 -0.0170 -0.1876
    1ACE      O    6   7.314   5.003  12.883 -0.6128 -0.1428 -0.1341
    2ALA      N    7   7.456   4.839  12.936 -0.0930  0.0774  0.9389
    2ALA      H    8   7.468   4.739  12.944  0.0741  0.1757  1.9756
    2ALA     CA    9   7.578   4.921  12.932 -0.0011 -0.3097 -0.4300
    2ALA     HA   10   7.559   5.025  12.958 -0.4875 -0.8558  1.5911
    2ALA     CB   11   7.663   4.868  13.048 -0.5296  0.6768  0.7133
    2ALA    HB1   12   7.756   4.922  13.063 -0.1647  0.2044  0.1948
    2ALA    HB2   13   7.606   4.883  13.140 -0.7482  1.0178  0.5232
    2ALA    HB3   14   7.682   4.761  13.040 -2.1010  0.3148  1.3720
    2ALA      C   15   7.644   4.930  12.794  0.4534  0.8194 -0.1104
    2ALA      O   16   7.751   4.877  12.770 -0.0484  0.1178 -0.2188
    3ALA      N   17   7.569   4.994  12.696 -0.3057  0.1818  0.1489
    3ALA      H   18   7.480   5.028  12.731 -0.6463  0.1095 -0.6137
    3ALA     CA   19   7.558   4.959  12.547 -0.0811 -0.2902  0.0206
    3ALA     HA   20   7.458   4.998  12.525 -0.4498 -0.9198  0.5555
    3ALA     CB   21   7.661   5.032  12.454  0.8538  1.0192 -0.1443
    3ALA    HB1   22   7.643   5.139  12.448 -0.4605  0.7734 -3.9495
    3ALA    HB2   23   7.766   5.019  12.480  0.2746 -1.1328  1.4401
    3ALA    HB3   24   7.645   4.993  12.353  2.0421  0.8804 -0.2917
    3ALA      C   25   7.544   4.818  12.496  0.3400 -0.4275 -0.2636
    3ALA      O   26   7.481   4.792  12.392  0.1908 -0.3375 -0.2156
    4ALA      N   27   7.593   4.719  12.577  0.1936 -0.4989 -0.1059
    4ALA      H   28   7.660   4.749  12.646  0.0863  1.3344 -0.7523
    4ALA     CA   29   7.538   4.581  12.565  0.5383  0.3528  0.3999
    4ALA     HA   30   7.566   4.536  12.470 -0.7161 -0.8396  0.5638
    4ALA     CB   31   7.609   4.494  12.664  0.6321  0.0188  0.3629
    4ALA    HB1   32   7.594   4.522  12.768 -2.9819 -1.4328  0.3845
    4ALA    HB2   33   7.565   4.395  12.659 -0.6950  0.6278 -1.0693
    4ALA    HB3   34   7.716   4.495  12.645  0.6028 -2.6582 -0.3975
    4ALA      C   35   7.383   4.572  12.584  0.2819  0.5473  0.2590
    4ALA      O   36   7.337   4.582  12.698  0.8102  0.2986 -0.2802
    5NME      N   37   7.306   4.557  12.476 -0.2171 -1.3329 -0.1587
    5NME      H   38   7.350   4.575  12.387  0.5748 -0.2075  0.4320
    5NME    CH3   39   7.158   4.557  12.480 -0.6349  0.2891 -0.5983
    5NME   HH31   40   7.122   4.459  12.450  1.8467 -0.5506 -1.1463
    5NME   HH32   41   7.116   4.573  12.580  0.9369  2.3923 -0.2104
    5NME   HH33   42   7.125   4.630  12.407  1.5916  2.6645  0.6337
  20.91516  20.91516  20.91516
