Protein
   60
    1ACE   HH31    1  18.553  18.637  21.192 -3.8083 -2.4095  2.9900
    1ACE    CH3    2  18.536  18.727  21.251 -0.3424  0.2264  0.3922
    1ACE   HH32    3  18.560  18.819  21.199 -1.8313  0.3507 -0.1319
    1ACE   HH33    4  18.431  18.730  21.280 -0.0410  0.5773  1.4837
    1ACE      C    5  18.621  18.727  21.376  0.7589 -0.1128 -0.1140
    1ACE      O    6  18.712  18.644  21.378 -0.3890 -0.3064 -0.5157
    2TRP      N    7  18.600  18.815  21.480  0.0593 -0.1495  0.0483
    2TRP      H    8  18.643  18.794  21.569 -0.1476 -1.4389 -0.1304
    2TRP     CA    9  18.514  18.939  21.472 -0.2603  0.1594  0.6846
    2TRP     HA   10  18.474  18.947  21.370 -3.4432 -0.7756  1.7269
    2TRP     CB   11  18.391  18.914  21.557 -0.2695 -0.2498 -0.5844
    2TRP    HB1   12  18.425  18.878  21.654  3.4120  0.5353 -1.4472
    2TRP    HB2   13  18.343  18.832  21.503  0.2872 -1.0494  0.1062
    2TRP     CG   14  18.294  19.030  21.562 -0.4607 -0.1801 -0.6864
    2TRP    CD1   15  18.194  19.063  21.479 -0.4780  0.5620 -0.4576
    2TRP    HD1   16  18.176  18.996  21.396  0.9091  1.9237 -1.9001
    2TRP    NE1   17  18.133  19.177  21.524  0.4558  0.7222 -0.1322
    2TRP    HE1   18  18.045  19.214  21.492 -1.1601 -0.5319  2.4663
    2TRP    CE2   19  18.187  19.217  21.642  0.0604 -0.6496  0.1315
    2TRP    CZ2   20  18.142  19.314  21.735  0.6318  0.1821 -0.5925
    2TRP    HZ2   21  18.062  19.382  21.713 -0.4043 -1.2212 -1.3634
    2TRP    CH2   22  18.218  19.321  21.858  0.6042 -0.9087 -0.3517
    2TRP    HH2   23  18.186  19.389  21.935  0.0763 -0.4341 -0.9733
    2TRP    CZ3   24  18.327  19.241  21.881  0.1479 -0.1574 -0.6626
    2TRP    HZ3   25  18.383  19.250  21.972  1.0808 -3.0950 -0.8266
    2TRP    CE3   26  18.373  19.153  21.781  0.0731 -0.0920  0.1887
    2TRP    HE3   27  18.456  19.086  21.797  0.2001  0.1393  0.5161
    2TRP    CD2   28  18.295  19.133  21.662  0.3607 -0.5081  0.0045
    2TRP      C   29  18.601  19.058  21.514  0.1894 -1.2183  0.6737
    2TRP      O   30  18.679  19.048  21.606  0.6824  0.6764  0.3682
    3TRP      N   31  18.591  19.181  21.457 -0.7410 -0.1763 -0.1279
    3TRP      H   32  18.640  19.254  21.507 -2.0483 -0.3348  1.4771
    3TRP     CA   33  18.533  19.209  21.331  0.0057 -0.4036  0.2588
    3TRP     HA   34  18.489  19.118  21.290  0.1789 -0.3315 -0.0928
    3TRP     CB   35  18.646  19.240  21.239  0.2644  0.0261 -0.1072
    3TRP    HB1   36  18.612  19.287  21.146 -1.0500 -0.2105  0.2408
    3TRP    HB2   37  18.709  19.308  21.297  1.0185 -0.8514  0.1188
    3TRP     CG   38  18.725  19.122  21.185 -0.3538 -0.3682  0.4168
    3TRP    CD1   39  18.816  19.053  21.249 -0.3817  0.7180  0.3773
    3TRP    HD1   40  18.839  19.068  21.354 -1.7599  0.8906  0.6821
    3TRP    NE1   41  18.854  18.938  21.174  1.0224  0.3255  0.3066
    3TRP    HE1   42  18.910  18.862  21.210 -0.7195 -0.4124  1.6058
    3TRP    CE2   43  18.793  18.935  21.054 -0.3836 -0.2592  0.1752
    3TRP    CZ2   44  18.797  18.846  20.948  0.1802 -0.2296  0.7209
    3TRP    HZ2   45  18.855  18.755  20.954  0.1467 -0.2206  1.3414
    3TRP    CH2   46  18.721  18.875  20.830 -0.5539 -0.5263 -0.9407
    3TRP    HH2   47  18.728  18.816  20.740 -1.8244  2.2738 -3.0303
    3TRP    CZ3   48  18.639  18.989  20.828 -0.1335  0.0220  0.1060
    3TRP    HZ3   49  18.582  19.008  20.739  0.8151 -3.1846 -1.3198
    3TRP    CE3   50  18.633  19.074  20.935 -0.4065 -0.0662 -0.4491
    3TRP    HE3   51  18.571  19.162  20.925 -1.2046 -0.5653  0.0662
    3TRP    CD2   52  18.715  19.053  21.052 -0.3646 -0.0814  0.0952
    3TRP      C   53  18.427  19.327  21.329  0.5969 -0.7163 -0.0148
    3TRP      O   54  18.368  19.364  21.227  0.3192 -0.4389  0.9270
    4NME      N   55  18.406  19.390  21.443 -0.3444 -0.1502 -0.9834
    4NME      H   56  18.448  19.359  21.529  1.3742  0.7841 -1.4497
    4NME    CH3   57  18.329  19.508  21.460 -0.0555 -0.5887 -0.2441
    4NME   HH31   58  18.355  19.567  21.372  1.7342 -0.7927  0.1015
    4NME   HH32   59  18.222  19.490  21.452 -0.4047  1.3687 -0.5893
    4NME   HH33   60  18.354  19.559  21.552  2.6631 -0.0081 -1.2035
  41.12396  41.12396  41.12396
