Protein
   42
    1ACE   HH31    1   9.641   4.961  16.603  0.8392 -2.6456  0.2512
    1ACE    CH3    2   9.536   4.931  16.591  0.3158 -0.6201 -0.6999
    1ACE   HH32    3   9.500   4.841  16.640 -0.9752 -0.2867 -1.0159
    1ACE   HH33    4   9.506   4.918  16.487 -1.2055  0.7586 -0.4851
    1ACE      C    5   9.449   5.048  16.651 -0.7320 -0.0837 -0.0576
    1ACE      O    6   9.487   5.166  16.624  0.3419 -0.6249  0.6021
    2ALA      N    7   9.347   5.014  16.731  0.2145  0.2171  0.1125
    2ALA      H    8   9.320   4.918  16.746 -3.5656  1.0626 -0.3032
    2ALA     CA    9   9.271   5.126  16.798 -1.0095  0.1036  0.2786
    2ALA     HA   10   9.255   5.201  16.721  0.6068  0.4035  0.1940
    2ALA     CB   11   9.135   5.079  16.853 -0.3008  1.2777 -0.4516
    2ALA    HB1   12   9.154   5.001  16.928  0.6569 -0.0538 -2.0178
    2ALA    HB2   13   9.071   5.158  16.892 -1.1963  0.2458  0.2381
    2ALA    HB3   14   9.072   5.031  16.779 -1.3131 -1.3162  1.8649
    2ALA      C   15   9.352   5.192  16.909 -0.9005 -0.4750 -0.1737
    2ALA      O   16   9.412   5.122  16.993 -0.0284  0.6945  0.2450
    3ALA      N   17   9.385   5.320  16.906 -0.0293  0.3155 -0.0769
    3ALA      H   18   9.443   5.346  16.985  0.6247 -1.9512  0.2454
    3ALA     CA   19   9.378   5.430  16.810 -0.6309 -0.5219  0.9145
    3ALA     HA   20   9.334   5.388  16.720 -0.5688  0.8703  0.1879
    3ALA     CB   21   9.290   5.546  16.853  0.6887  0.7940  1.0755
    3ALA    HB1   22   9.270   5.605  16.764  0.0681 -0.0160  0.6647
    3ALA    HB2   23   9.200   5.497  16.890  1.4142  0.9393  3.1957
    3ALA    HB3   24   9.332   5.608  16.932 -0.0810  1.2034  1.1775
    3ALA      C   25   9.522   5.485  16.765  0.4922  0.1120  0.1826
    3ALA      O   26   9.544   5.604  16.787  0.5344 -0.4127  0.5679
    4ALA      N   27   9.608   5.401  16.709 -0.0312 -0.1458  0.7013
    4ALA      H   28   9.572   5.307  16.701 -2.3040  0.8027 -1.9375
    4ALA     CA   29   9.743   5.422  16.663 -0.1468 -0.0605 -0.0883
    4ALA     HA   30   9.787   5.327  16.690 -0.3782 -0.4410 -1.0056
    4ALA     CB   31   9.744   5.424  16.503 -0.0685 -0.3257 -0.1874
    4ALA    HB1   32   9.685   5.510  16.473  0.1993 -0.4201 -1.0132
    4ALA    HB2   33   9.846   5.453  16.477 -0.8706  1.4568 -1.5185
    4ALA    HB3   34   9.713   5.326  16.467  0.9802 -0.3162 -1.1714
    4ALA      C   35   9.828   5.547  16.706  0.2538  0.1731 -0.2777
    4ALA      O   36   9.936   5.518  16.758  0.3619 -0.3844  0.7095
    5NME      N   37   9.784   5.669  16.694 -0.0954 -0.2113  0.0564
    5NME      H   38   9.687   5.679  16.667  0.7476 -0.5292 -3.7503
    5NME    CH3   39   9.852   5.785  16.748 -0.2305 -1.0427  0.1770
    5NME   HH31   40   9.859   5.866  16.676 -1.0803  1.1216  2.4048
    5NME   HH32   41   9.796   5.818  16.835 -2.2561  2.2783 -2.1521
    5NME   HH33   42   9.951   5.754  16.782  0.1513 -0.1326 -0.0927
  20.91516  20.91516  20.91516
