Protein
   42
    1ACE   HH31    1  16.786   7.674   6.383  0.6116 -0.8178  1.2781
    1ACE    CH3    2  16.880   7.651   6.333  0.2728  0.9829 -0.3309
    1ACE   HH32    3  16.868   7.675   6.228  1.3968  0.8077 -0.5248
    1ACE   HH33    4  16.908   7.546   6.346  2.0962  1.5805  0.8451
    1ACE      C    5  16.997   7.730   6.386 -0.1830  0.2164 -0.6580
    1ACE      O    6  17.069   7.680   6.471 -0.1885 -0.5435 -0.5371
    2ALA      N    7  16.993   7.865   6.351  0.0930  0.5934 -0.0497
    2ALA      H    8  16.916   7.898   6.294 -1.4440 -1.3320  0.7919
    2ALA     CA    9  17.073   7.970   6.415 -0.3859  0.2890 -0.8895
    2ALA     HA   10  17.169   7.924   6.438 -1.0693 -1.2081 -0.9085
    2ALA     CB   11  17.099   8.078   6.312  0.0656 -0.0093 -0.8321
    2ALA    HB1   12  17.015   8.148   6.316  1.5997  1.9530 -1.2362
    2ALA    HB2   13  17.194   8.126   6.336  1.1741 -2.3584 -0.2183
    2ALA    HB3   14  17.104   8.027   6.216  0.2770  1.8878 -1.8871
    2ALA      C   15  17.019   8.023   6.548  0.3540 -0.1811 -0.1067
    2ALA      O   16  16.921   8.093   6.549 -0.5368  0.2663  0.4217
    3ALA      N   17  17.072   7.985   6.667 -0.2437 -0.4458  0.1638
    3ALA      H   18  17.044   8.048   6.742  0.3029 -0.4674  0.3917
    3ALA     CA   19  17.167   7.883   6.705 -0.0397  0.2847  0.1791
    3ALA     HA   20  17.205   7.828   6.620  3.6470  0.0067  1.8219
    3ALA     CB   21  17.293   7.955   6.753 -0.4144 -0.2965  0.1790
    3ALA    HB1   22  17.385   7.896   6.754  0.4019  0.9312 -0.5669
    3ALA    HB2   23  17.327   8.035   6.687  0.6147  1.1905  2.3683
    3ALA    HB3   24  17.285   8.008   6.848 -1.5549  0.6453 -0.4185
    3ALA      C   25  17.107   7.780   6.808 -0.2342  0.2406  0.5132
    3ALA      O   26  17.093   7.812   6.926 -0.0442 -0.1356  0.3114
    4ALA      N   27  17.080   7.656   6.765  0.0785  0.4814  0.0455
    4ALA      H   28  17.094   7.642   6.666 -0.0540 -1.2205  0.2238
    4ALA     CA   29  16.999   7.551   6.830 -0.4030 -0.0595  0.1746
    4ALA     HA   30  16.937   7.511   6.750  0.3046 -0.0765 -0.3703
    4ALA     CB   31  17.090   7.435   6.874 -0.1727 -0.0976  0.0463
    4ALA    HB1   32  17.169   7.463   6.943  0.8796  1.3863 -1.6889
    4ALA    HB2   33  17.026   7.355   6.910  0.1741 -0.7994 -0.8206
    4ALA    HB3   34  17.137   7.407   6.779 -0.0071  0.1184  0.0642
    4ALA      C   35  16.894   7.570   6.943  0.4455  0.3263  0.3915
    4ALA      O   36  16.783   7.506   6.942  0.0392  0.1252  0.0451
    5NME      N   37  16.930   7.645   7.050  0.1206 -0.6095 -0.2847
    5NME      H   38  17.021   7.689   7.057 -0.9982  1.6760  1.2711
    5NME    CH3   39  16.854   7.653   7.174 -0.2326  0.6796  0.5760
    5NME   HH31   40  16.924   7.648   7.257  1.8694  1.6469 -1.0458
    5NME   HH32   41  16.803   7.749   7.177 -2.8804 -0.5584 -1.3662
    5NME   HH33   42  16.783   7.570   7.178 -1.6160  1.7949  0.0510
  20.91516  20.91516  20.91516
