Protein
   42
    1ACE   HH31    1   9.474  10.196  11.801 -2.0862 -1.6157  2.1420
    1ACE    CH3    2   9.449  10.136  11.714 -0.3022 -0.0868  0.4942
    1ACE   HH32    3   9.523  10.154  11.637 -0.2527  1.3926  0.8617
    1ACE   HH33    4   9.354  10.160  11.666 -0.4365 -0.0218  0.7800
    1ACE      C    5   9.431   9.991  11.752  0.0234  0.1522  0.3453
    1ACE      O    6   9.323   9.940  11.728  0.1685  0.2436  0.1878
    2ALA      N    7   9.530   9.923  11.811 -0.5154  0.5014  0.1807
    2ALA      H    8   9.617   9.974  11.811 -1.4179  2.1411  1.1951
    2ALA     CA    9   9.528   9.779  11.838  0.5322  0.5504  0.5479
    2ALA     HA   10   9.629   9.756  11.873  0.1063  1.0093  2.1699
    2ALA     CB   11   9.431   9.746  11.954 -0.5065 -0.3119 -0.2582
    2ALA    HB1   12   9.436   9.639  11.976  0.5334 -0.0986  0.6842
    2ALA    HB2   13   9.458   9.794  12.048  0.6873 -1.0347 -0.2007
    2ALA    HB3   14   9.333   9.784  11.927 -0.6601 -0.7845 -0.3871
    2ALA      C   15   9.501   9.693  11.711 -0.2531 -0.1466  0.0385
    2ALA      O   16   9.594   9.659  11.637 -0.4582  0.4338  0.0155
    3ALA      N   17   9.371   9.666  11.674 -0.0902 -0.4623 -0.9217
    3ALA      H   18   9.305   9.730  11.718  0.7418 -1.6052  2.2578
    3ALA     CA   19   9.330   9.594  11.552  0.0491  0.3179 -0.5071
    3ALA     HA   20   9.413   9.559  11.490  0.4811  1.3355 -0.5261
    3ALA     CB   21   9.242   9.474  11.599 -0.1666  0.3357  0.3709
    3ALA    HB1   22   9.311   9.391  11.617 -0.8189 -0.2123  0.4317
    3ALA    HB2   23   9.190   9.484  11.695 -1.6314  0.6122 -0.4239
    3ALA    HB3   24   9.162   9.449  11.529 -0.4030  2.0295 -0.0004
    3ALA      C   25   9.245   9.687  11.462 -0.2338 -0.5215  0.0459
    3ALA      O   26   9.207   9.645  11.350 -0.2829  0.1454 -0.3317
    4ALA      N   27   9.217   9.815  11.497 -0.2903  0.4226 -0.6522
    4ALA      H   28   9.236   9.836  11.594  0.1473 -2.1724 -0.0685
    4ALA     CA   29   9.142   9.910  11.407  0.1413 -0.0211 -0.8430
    4ALA     HA   30   9.140  10.004  11.461 -1.8786 -0.8329  0.5699
    4ALA     CB   31   9.208   9.940  11.267  0.4430 -0.7056  0.4022
    4ALA    HB1   32   9.304   9.991  11.276  0.2257 -0.2051 -0.0404
    4ALA    HB2   33   9.226   9.851  11.208  0.6921  0.0014 -0.6012
    4ALA    HB3   34   9.127   9.992  11.215 -0.7589 -1.3667  1.5075
    4ALA      C   35   8.993   9.874  11.407  0.1943  0.1969 -0.4633
    4ALA      O   36   8.919   9.971  11.415  0.1280  0.6609  0.0151
    5NME      N   37   8.956   9.744  11.392 -0.1511  0.3742 -0.2340
    5NME      H   38   9.033   9.680  11.385  0.9428  1.4671  1.0958
    5NME    CH3   39   8.820   9.702  11.411  0.1045  0.3540  0.7267
    5NME   HH31   40   8.814   9.608  11.356 -0.9273  1.1293 -0.5333
    5NME   HH32   41   8.804   9.675  11.515 -0.5967  2.0425  1.0735
    5NME   HH33   42   8.746   9.769  11.367  0.6648  0.5336  0.0408
  20.91516  20.91516  20.91516
