Protein
   42
    1ACE   HH31    1   9.969  11.121  10.635  0.1084 -0.2063  0.5220
    1ACE    CH3    2  10.008  11.139  10.535 -0.6049  0.1246  0.3002
    1ACE   HH32    3  10.117  11.135  10.540 -0.4801  0.3177 -1.6076
    1ACE   HH33    4   9.963  11.225  10.486  3.4112  2.2310 -0.1257
    1ACE      C    5   9.971  11.015  10.457 -0.5533  0.6152  0.0669
    1ACE      O    6   9.901  11.018  10.359 -0.1233 -0.2980  0.8158
    2ALA      N    7  10.015  10.898  10.498 -0.1277 -0.4220 -0.0886
    2ALA      H    8  10.085  10.886  10.570  0.7676 -1.4689 -1.0919
    2ALA     CA    9   9.956  10.772  10.446  0.7577  0.1981  0.0757
    2ALA     HA   10   9.972  10.783  10.339 -0.5435  1.6470  0.0040
    2ALA     CB   11  10.046  10.665  10.506  0.2278  0.5364  0.2965
    2ALA    HB1   12  10.026  10.566  10.465  1.9712 -0.1093  0.8898
    2ALA    HB2   13  10.148  10.691  10.475  0.6926  0.2521  1.5251
    2ALA    HB3   14  10.033  10.668  10.614 -0.8301 -1.1326  0.2485
    2ALA      C   15   9.799  10.754  10.465  0.4009 -0.1871  0.1390
    2ALA      O   16   9.747  10.760  10.579  0.8345  0.5033  0.1961
    3ALA      N   17   9.723  10.713  10.367  0.2800 -0.1630  0.7477
    3ALA      H   18   9.625  10.700  10.392 -0.2325  1.8103 -0.0980
    3ALA     CA   19   9.750  10.696  10.219  0.1938  0.2063 -0.8919
    3ALA     HA   20   9.854  10.669  10.205  0.6474 -0.5386  2.8757
    3ALA     CB   21   9.665  10.578  10.170 -0.3827 -0.2282 -0.3791
    3ALA    HB1   22   9.699  10.488  10.222 -1.9947  0.3750  1.9040
    3ALA    HB2   23   9.561  10.600  10.197 -0.4551 -0.3760 -0.5177
    3ALA    HB3   24   9.673  10.561  10.062  1.8940 -0.5346 -0.2003
    3ALA      C   25   9.711  10.819  10.134 -0.9810 -0.4333  1.2442
    3ALA      O   26   9.737  10.814  10.014 -0.1578 -0.1065  0.1183
    4ALA      N   27   9.657  10.923  10.194 -0.0818  0.0291  0.2934
    4ALA      H   28   9.662  10.919  10.294  0.1662 -1.0277  0.2490
    4ALA     CA   29   9.586  11.032  10.118  0.4956  0.1006 -0.4464
    4ALA     HA   30   9.574  11.006  10.013  1.2196  3.5251 -1.4866
    4ALA     CB   31   9.445  11.036  10.179 -0.8649 -0.4937  0.9206
    4ALA    HB1   32   9.443  11.089  10.274 -0.9382 -0.6569  1.0112
    4ALA    HB2   33   9.385  11.091  10.107 -0.6273 -2.1244 -0.6049
    4ALA    HB3   34   9.412  10.932  10.181 -0.0196 -0.7896  0.4436
    4ALA      C   35   9.650  11.175  10.124 -0.0815  0.1181 -0.5827
    4ALA      O   36   9.592  11.274  10.081  0.1653  0.0931 -0.5283
    5NME      N   37   9.773  11.189  10.182  0.2110  0.6179 -0.2615
    5NME      H   38   9.823  11.104  10.205  0.2175 -0.1469 -2.7240
    5NME    CH3   39   9.848  11.319  10.189  0.7243  0.3023  0.0240
    5NME   HH31   40   9.840  11.377  10.098  0.0614 -0.1850 -0.2373
    5NME   HH32   41   9.816  11.381  10.273  2.8959  1.6341 -0.0866
    5NME   HH33   42   9.947  11.286  10.220  1.0961  0.0893 -1.3624
  20.91516  20.91516  20.91516
