Protein
   32
    1ACE   HH31    1   7.935  12.585   4.172  0.1009 -0.6491  0.1020
    1ACE    CH3    2   7.890  12.615   4.267  0.5407  0.5997 -0.0666
    1ACE   HH32    3   7.796  12.667   4.245  1.4693  1.6525 -1.7044
    1ACE   HH33    4   7.952  12.686   4.322 -0.1243  0.1304  1.3645
    1ACE      C    5   7.856  12.498   4.359  0.0022 -0.5491 -0.3591
    1ACE      O    6   7.910  12.391   4.332  0.5367  0.2410  0.3836
    2ALA      N    7   7.772  12.519   4.460 -0.0540  0.0090  0.1796
    2ALA      H    8   7.729  12.609   4.476 -1.5463 -0.7720  0.7418
    2ALA     CA    9   7.758  12.414   4.561 -0.3626  0.5329 -0.1136
    2ALA     HA   10   7.799  12.324   4.516 -1.2872  0.4347 -0.7817
    2ALA     CB   11   7.850  12.450   4.686 -0.0212  0.5817  0.4862
    2ALA    HB1   12   7.948  12.467   4.642 -0.7814  1.8578 -0.7794
    2ALA    HB2   13   7.816  12.546   4.724 -0.0758 -0.3221  2.8627
    2ALA    HB3   14   7.845  12.371   4.760  1.3373  0.5800  0.5791
    2ALA      C   15   7.609  12.393   4.597  0.1667 -0.0508 -0.0505
    2ALA      O   16   7.534  12.492   4.611  0.4803 -0.3249  0.5908
    3ALA      N   17   7.575  12.263   4.625  0.0593 -0.3936 -0.1202
    3ALA      H   18   7.644  12.189   4.625  0.0425 -0.4914  2.3940
    3ALA     CA   19   7.444  12.238   4.692 -0.1362 -0.3136 -0.4886
    3ALA     HA   20   7.376  12.314   4.653  0.3867 -0.1620 -1.1130
    3ALA     CB   21   7.392  12.112   4.647  0.1816  0.9100  0.4312
    3ALA    HB1   22   7.298  12.085   4.695  0.9927 -1.8296  0.6121
    3ALA    HB2   23   7.375  12.121   4.539  0.8895 -0.4153  0.1910
    3ALA    HB3   24   7.464  12.030   4.653  2.2915  2.6417  0.1425
    3ALA      C   25   7.459  12.253   4.848 -0.0529 -0.5471 -0.4571
    3ALA      O   26   7.567  12.290   4.898 -0.3258  0.2854  0.0267
    4NME      N   27   7.351  12.225   4.923 -0.3174 -0.6226 -0.4457
    4NME      H   28   7.269  12.214   4.866 -0.1657 -2.3604 -0.3737
    4NME    CH3   29   7.343  12.215   5.070 -0.8220  0.2568  0.0805
    4NME   HH31   30   7.261  12.280   5.100  1.1277  2.0241  1.9659
    4NME   HH32   31   7.313  12.121   5.115 -0.9553  1.4458  2.6584
    4NME   HH33   32   7.436  12.256   5.111  0.1678 -2.3830  0.6475
  20.99041  20.99041  20.99041
