Protein
   42
    1ACE   HH31    1  10.772  10.371   9.661  2.4884 -2.9251  1.6169
    1ACE    CH3    2  10.860  10.418   9.617 -0.0209 -0.0179 -0.6235
    1ACE   HH32    3  10.842  10.492   9.539  1.8800 -0.1693 -1.2354
    1ACE   HH33    4  10.917  10.334   9.578  0.2541 -1.5311  2.7345
    1ACE      C    5  10.948  10.486   9.718 -0.0374  0.5313  0.2021
    1ACE      O    6  11.059  10.433   9.740  0.0243 -0.0732  0.2883
    2ALA      N    7  10.910  10.601   9.772  0.0637  0.9010 -0.0361
    2ALA      H    8  10.825  10.636   9.730 -0.4835 -1.6474 -1.2114
    2ALA     CA    9  10.969  10.681   9.887  0.2623 -0.1783  0.3011
    2ALA     HA   10  10.972  10.781   9.842 -0.4527  0.7907  2.2759
    2ALA     CB   11  10.874  10.671  10.003 -0.0462 -0.0439 -0.0043
    2ALA    HB1   12  10.782  10.722   9.976 -0.5107 -0.4083  0.8572
    2ALA    HB2   13  10.847  10.569  10.032  0.8671 -0.4277 -0.4344
    2ALA    HB3   14  10.909  10.720  10.094 -1.4534 -0.4245  0.7691
    2ALA      C   15  11.117  10.654   9.929  0.4001  0.6317  0.9721
    2ALA      O   16  11.150  10.611  10.042 -0.1386 -0.4041  0.2224
    3ALA      N   17  11.213  10.665   9.832  0.3000 -0.3235  0.3248
    3ALA      H   18  11.301  10.637   9.875  1.5404  1.3773 -0.9924
    3ALA     CA   19  11.216  10.728   9.703 -0.0222  0.0223  0.4147
    3ALA     HA   20  11.115  10.716   9.662 -0.1979 -1.8073  1.2708
    3ALA     CB   21  11.246  10.878   9.719 -0.1894  0.9161  0.5198
    3ALA    HB1   22  11.354  10.874   9.732  0.4142  0.0811 -3.4819
    3ALA    HB2   23  11.221  10.930   9.627  0.2512 -1.1628 -0.8465
    3ALA    HB3   24  11.186  10.916   9.802  0.0404 -4.3087  3.5963
    3ALA      C   25  11.300  10.652   9.599  0.6751  0.0581 -0.0092
    3ALA      O   26  11.343  10.708   9.502 -0.4265  0.6658 -0.6470
    4ALA      N   27  11.327  10.525   9.626  0.0410 -0.3782 -0.5721
    4ALA      H   28  11.287  10.491   9.712  0.4662  0.3177 -0.0818
    4ALA     CA   29  11.414  10.444   9.545 -0.1281 -0.6760 -0.6227
    4ALA     HA   30  11.415  10.479   9.442 -0.7694  3.6410  0.6362
    4ALA     CB   31  11.554  10.471   9.606 -0.2250 -0.0126 -0.6235
    4ALA    HB1   32  11.564  10.441   9.710 -0.3461 -1.4719 -1.0072
    4ALA    HB2   33  11.633  10.425   9.546 -0.2850 -2.5789  1.1025
    4ALA    HB3   34  11.564  10.580   9.599  0.7658  0.1240  2.0913
    4ALA      C   35  11.378  10.298   9.542  1.1896 -0.0641 -0.3510
    4ALA      O   36  11.450  10.208   9.501  0.0829 -0.0865  0.4800
    5NME      N   37  11.261  10.270   9.614 -0.0673 -0.2368 -0.2893
    5NME      H   38  11.187  10.335   9.636 -0.1541 -0.2834 -0.4321
    5NME    CH3   39  11.230  10.143   9.662  0.3307 -0.2282  0.2178
    5NME   HH31   40  11.276  10.078   9.587  0.5635 -1.0192  1.0143
    5NME   HH32   41  11.266  10.118   9.762 -0.3597  1.0936  0.8114
    5NME   HH33   42  11.121  10.132   9.664  0.3126 -0.8822 -1.8032
  20.91516  20.91516  20.91516
