Protein
   42
    1ACE   HH31    1  17.792  10.832   3.095  2.8402 -0.4997 -0.7947
    1ACE    CH3    2  17.801  10.778   3.189 -0.8718  0.0048 -0.0250
    1ACE   HH32    3  17.822  10.855   3.262  0.4646 -1.1302  0.8387
    1ACE   HH33    4  17.876  10.699   3.186 -0.0560  0.6088  2.4335
    1ACE      C    5  17.672  10.716   3.234 -1.0656 -0.2202 -0.9078
    1ACE      O    6  17.667  10.589   3.242  0.5783  0.1247  0.6079
    2ALA      N    7  17.576  10.793   3.282 -0.5685 -0.0616  0.3010
    2ALA      H    8  17.594  10.891   3.269 -0.6336  0.5325  3.6169
    2ALA     CA    9  17.440  10.764   3.339 -0.1668 -0.2417  0.8244
    2ALA     HA   10  17.437  10.783   3.446 -3.7501 -0.4919  0.9139
    2ALA     CB   11  17.342  10.863   3.275 -0.1145  0.3195  0.3927
    2ALA    HB1   12  17.355  10.862   3.166 -0.8648  1.6650  0.2833
    2ALA    HB2   13  17.239  10.829   3.278  0.4625 -1.5090  2.2435
    2ALA    HB3   14  17.359  10.958   3.325 -2.1023  0.0015  1.7691
    2ALA      C   15  17.392  10.609   3.317  0.1787 -0.1377  0.3579
    2ALA      O   16  17.324  10.575   3.217  0.4162 -0.5401 -0.0120
    3ALA      N   17  17.431  10.518   3.409 -0.3733  0.5052 -0.0082
    3ALA      H   18  17.507  10.548   3.469  0.3190  2.3468 -1.7278
    3ALA     CA   19  17.394  10.376   3.412 -0.1782 -0.4107  0.5475
    3ALA     HA   20  17.459  10.329   3.486 -1.5407 -0.7199  1.5814
    3ALA     CB   21  17.252  10.370   3.467  0.3011  0.3582  0.2606
    3ALA    HB1   22  17.238  10.277   3.522 -1.5458  0.2445 -0.3095
    3ALA    HB2   23  17.209  10.456   3.519  0.3805  0.2549  0.4966
    3ALA    HB3   24  17.185  10.366   3.381  2.0968  3.7710 -1.4882
    3ALA      C   25  17.410  10.294   3.280 -0.5595 -0.4301  0.0715
    3ALA      O   26  17.363  10.185   3.268  0.3966  0.5598 -0.2842
    4ALA      N   27  17.482  10.356   3.184  0.1956  0.1556  0.2105
    4ALA      H   28  17.512  10.452   3.193 -0.1929  0.3156 -0.1470
    4ALA     CA   29  17.517  10.283   3.057 -0.4890  0.5135 -0.1626
    4ALA     HA   30  17.444  10.203   3.047 -0.4565  0.2323  1.5381
    4ALA     CB   31  17.508  10.385   2.942  0.5569  0.5582 -0.0904
    4ALA    HB1   32  17.604  10.419   2.905  0.1819  0.4197 -1.2406
    4ALA    HB2   33  17.454  10.337   2.860 -0.8187  2.0350 -0.1283
    4ALA    HB3   34  17.450  10.472   2.975 -0.2274 -0.4821  1.4060
    4ALA      C   35  17.657  10.213   3.064  0.1129 -0.2972 -0.5005
    4ALA      O   36  17.697  10.136   2.971 -0.2970  0.1127 -0.0785
    5NME      N   37  17.742  10.249   3.166 -0.1379  0.2911  0.1885
    5NME      H   38  17.700  10.313   3.232 -1.3301 -0.7757  0.5144
    5NME    CH3   39  17.867  10.183   3.198 -1.0356  0.1212  0.0869
    5NME   HH31   40  17.856  10.094   3.260 -1.5878 -0.6457 -1.0729
    5NME   HH32   41  17.920  10.138   3.114 -1.5027 -2.9350  1.3061
    5NME   HH33   42  17.930  10.257   3.247  0.3800 -0.2641 -1.0725
  20.91516  20.91516  20.91516
