Protein
   42
    1ACE   HH31    1   6.304   6.297  12.805 -0.4782  0.8324  1.9292
    1ACE    CH3    2   6.313   6.220  12.882  0.4309 -0.7146  0.3337
    1ACE   HH32    3   6.216   6.213  12.931  0.2004 -0.0863 -0.0120
    1ACE   HH33    4   6.392   6.248  12.952  0.3840  1.7050 -0.4922
    1ACE      C    5   6.355   6.086  12.826 -0.4443 -0.1664 -0.3098
    1ACE      O    6   6.292   6.031  12.741 -0.5306 -0.0469  0.7009
    2ALA      N    7   6.458   6.021  12.877  0.0445 -0.0942 -0.4235
    2ALA      H    8   6.487   6.058  12.967 -1.0762  1.7205 -0.7566
    2ALA     CA    9   6.500   5.892  12.828  0.1061  0.2774  0.0070
    2ALA     HA   10   6.423   5.827  12.786 -0.4187 -0.2383  1.7250
    2ALA     CB   11   6.610   5.923  12.721 -0.1608 -0.0713  0.3445
    2ALA    HB1   12   6.558   5.967  12.636 -2.5185 -3.0168  0.0382
    2ALA    HB2   13   6.688   5.990  12.757  1.7455 -1.2619 -1.3496
    2ALA    HB3   14   6.656   5.832  12.682  2.3944  1.9516 -1.7163
    2ALA      C   15   6.560   5.800  12.935 -0.4326  0.4273 -0.1774
    2ALA      O   16   6.529   5.822  13.050 -0.3163  0.0515  0.0657
    3ALA      N   17   6.643   5.697  12.894  0.1372  0.1403 -0.0072
    3ALA      H   18   6.637   5.671  12.796  0.6979  1.9754 -0.5782
    3ALA     CA   19   6.714   5.612  12.981  0.7229 -0.0769 -0.4298
    3ALA     HA   20   6.666   5.607  13.078  0.7508  2.7937 -0.1822
    3ALA     CB   21   6.712   5.467  12.921 -0.3139  0.9524  0.1046
    3ALA    HB1   22   6.609   5.433  12.912  0.9269 -3.1317 -0.5008
    3ALA    HB2   23   6.755   5.454  12.821 -1.0478 -0.8582 -0.0001
    3ALA    HB3   24   6.751   5.398  12.995 -2.3582  0.1926  0.4906
    3ALA      C   25   6.861   5.658  13.003 -0.4867  0.1106 -1.0873
    3ALA      O   26   6.935   5.618  13.092 -0.3751 -0.1610  0.3667
    4ALA      N   27   6.910   5.737  12.911  0.0002  0.3596 -0.1366
    4ALA      H   28   6.855   5.771  12.833  1.8050  0.4780 -1.3942
    4ALA     CA   29   7.051   5.760  12.889  0.0460  0.2383  0.4020
    4ALA     HA   30   7.102   5.761  12.986  0.3929  0.1206  0.2182
    4ALA     CB   31   7.102   5.639  12.804  0.5884  0.0043 -0.4508
    4ALA    HB1   32   7.094   5.544  12.856 -0.5809  0.4857  0.2726
    4ALA    HB2   33   7.037   5.631  12.717 -0.9052 -0.1648  0.6225
    4ALA    HB3   34   7.203   5.656  12.767  0.5380  2.2417  0.2823
    4ALA      C   35   7.081   5.903  12.831 -0.2427 -0.0070  0.2085
    4ALA      O   36   7.058   5.933  12.715 -0.6991 -0.1094 -0.4386
    5NME      N   37   7.105   6.003  12.917 -0.4616 -0.4518  0.2659
    5NME      H   38   7.095   5.979  13.015 -0.7931 -1.1310  0.0705
    5NME    CH3   39   7.122   6.151  12.896  1.1708  1.0805  0.0007
    5NME   HH31   40   7.213   6.158  12.836  0.3471 -0.7106 -1.5482
    5NME   HH32   41   7.037   6.196  12.844 -1.7946 -0.1270  3.3470
    5NME   HH33   42   7.130   6.194  12.996  2.1046 -1.4031  1.0631
  20.91516  20.91516  20.91516
