Protein
   42
    1ACE   HH31    1   7.066   6.622  11.975  2.6385  2.7377 -0.2611
    1ACE    CH3    2   6.988   6.697  11.992  0.3639  0.4207  0.1142
    1ACE   HH32    3   6.995   6.788  11.933 -0.8351  0.7388  0.4350
    1ACE   HH33    4   6.972   6.715  12.099  0.6615  1.0619  0.0490
    1ACE      C    5   6.857   6.627  11.954  0.3052 -0.4446  0.0539
    1ACE      O    6   6.784   6.588  12.041  0.4619 -0.6491 -0.3313
    2ALA      N    7   6.821   6.631  11.827 -0.1824  0.1828  0.3324
    2ALA      H    8   6.891   6.665  11.763 -1.6990 -1.3323 -2.3438
    2ALA     CA    9   6.717   6.551  11.766  0.0791  0.4693  0.0312
    2ALA     HA   10   6.733   6.532  11.660 -2.3361 -2.0843  0.0162
    2ALA     CB   11   6.714   6.401  11.816  0.2959  0.3874 -0.4320
    2ALA    HB1   12   6.669   6.410  11.915  3.2411  0.4619  0.9910
    2ALA    HB2   13   6.654   6.342  11.747  0.1199  0.6199 -0.4779
    2ALA    HB3   14   6.816   6.364  11.830 -0.8851 -3.2975 -0.6791
    2ALA      C   15   6.584   6.629  11.767  0.3703  0.2116  0.5030
    2ALA      O   16   6.528   6.672  11.665 -0.4823  0.2917  0.1161
    3ALA      N   17   6.535   6.647  11.888  0.1589  1.3180  0.9761
    3ALA      H   18   6.581   6.595  11.961  0.0901 -2.9738 -1.6765
    3ALA     CA   19   6.459   6.766  11.921  0.2032 -0.0029  0.3263
    3ALA     HA   20   6.361   6.774  11.874 -0.3184  0.9572  1.5143
    3ALA     CB   21   6.435   6.764  12.072  0.3372  0.2208 -0.2513
    3ALA    HB1   22   6.366   6.682  12.093 -0.5256  1.0927  0.3891
    3ALA    HB2   23   6.534   6.760  12.118  1.2360 -2.5472 -2.1656
    3ALA    HB3   24   6.398   6.859  12.110  1.3172  0.6623 -0.3457
    3ALA      C   25   6.527   6.900  11.880 -0.3063 -0.1224  0.1390
    3ALA      O   26   6.461   7.001  11.847 -0.0572 -0.7172 -0.1168
    4ALA      N   27   6.665   6.906  11.873  0.2455  0.4740  0.2256
    4ALA      H   28   6.716   6.819  11.886  2.5222  1.8173  0.8780
    4ALA     CA   29   6.742   7.013  11.811 -0.4869 -0.7758  0.7698
    4ALA     HA   30   6.666   7.080  11.769 -0.3439 -0.8974  0.3228
    4ALA     CB   31   6.819   7.081  11.919 -0.1827 -0.0969  0.1190
    4ALA    HB1   32   6.761   7.080  12.011  0.0025 -4.4142  0.3554
    4ALA    HB2   33   6.914   7.028  11.926 -0.8000 -1.1450  0.7245
    4ALA    HB3   34   6.836   7.184  11.888  0.3108 -0.1050  0.3682
    4ALA      C   35   6.826   6.968  11.694  0.2814  0.1675 -0.6269
    4ALA      O   36   6.918   6.888  11.714 -0.3488 -0.0515 -0.1491
    5NME      N   37   6.785   7.008  11.573 -0.4892  0.1149 -0.1348
    5NME      H   38   6.713   7.079  11.578 -2.3771 -1.6197 -1.3590
    5NME    CH3   39   6.863   6.978  11.449 -0.3112 -0.3929  0.2589
    5NME   HH31   40   6.860   7.068  11.388  0.6565 -0.6553 -0.1896
    5NME   HH32   41   6.969   6.965  11.471  0.3274  3.6169  0.4181
    5NME   HH33   42   6.808   6.903  11.394 -0.5823 -0.3151  0.4178
  20.91516  20.91516  20.91516
