Protein
   42
    1ACE   HH31    1  13.556   9.153  12.692  0.2469  0.8059 -0.7473
    1ACE    CH3    2  13.645   9.145  12.628  0.1463  0.8443 -0.8958
    1ACE   HH32    3  13.722   9.086  12.677 -0.2080 -0.1317 -1.4748
    1ACE   HH33    4  13.686   9.244  12.612  2.7178  0.1613  0.9792
    1ACE      C    5  13.614   9.082  12.502  0.2387 -0.3704 -0.0728
    1ACE      O    6  13.603   9.150  12.398 -0.7107  0.2761 -0.2709
    2ALA      N    7  13.598   8.951  12.503 -0.7563 -0.5547 -0.2345
    2ALA      H    8  13.608   8.907  12.593 -0.1228  0.4986  0.2332
    2ALA     CA    9  13.594   8.868  12.375  1.0398  0.1229 -0.3692
    2ALA     HA   10  13.553   8.920  12.289 -0.9188 -3.7551 -2.0807
    2ALA     CB   11  13.744   8.833  12.342 -0.1427  0.6775 -0.4387
    2ALA    HB1   12  13.785   8.779  12.428 -1.1107  0.0348 -0.3674
    2ALA    HB2   13  13.746   8.769  12.254  0.4035  1.6244 -1.1311
    2ALA    HB3   14  13.815   8.915  12.328 -0.9282  1.3025 -0.9026
    2ALA      C   15  13.507   8.737  12.403  0.0573 -0.0731  0.0324
    2ALA      O   16  13.504   8.696  12.517 -0.0825  0.3985 -0.2055
    3ALA      N   17  13.444   8.670  12.309  0.2052  0.6059  0.4230
    3ALA      H   18  13.401   8.584  12.341 -1.1339  0.6371 -1.1707
    3ALA     CA   19  13.407   8.703  12.170  0.9818  0.2171 -0.1004
    3ALA     HA   20  13.483   8.666  12.101 -0.1520 -2.4512 -0.0457
    3ALA     CB   21  13.289   8.609  12.128 -0.4340  0.1363  0.6740
    3ALA    HB1   22  13.197   8.618  12.185 -0.7981 -0.0350  0.1238
    3ALA    HB2   23  13.252   8.630  12.027 -2.1960  0.0832  1.2666
    3ALA    HB3   24  13.323   8.506  12.116  1.6873  0.7782  0.7185
    3ALA      C   25  13.379   8.851  12.141 -0.3036 -0.8982 -0.1861
    3ALA      O   26  13.417   8.894  12.037  0.0925 -0.8878 -0.0517
    4ALA      N   27  13.321   8.932  12.232 -0.9179 -0.0138  0.0790
    4ALA      H   28  13.295   8.898  12.324  0.0823  1.6089  1.0157
    4ALA     CA   29  13.297   9.072  12.223 -0.6760  0.5949  0.1696
    4ALA     HA   30  13.387   9.113  12.178 -0.8323 -0.8694 -1.6215
    4ALA     CB   31  13.175   9.095  12.135  0.0771  0.3922  0.3462
    4ALA    HB1   32  13.159   9.200  12.113  0.8308  0.8634  1.8987
    4ALA    HB2   33  13.178   9.040  12.040 -0.0191 -0.4937  0.8427
    4ALA    HB3   34  13.089   9.059  12.191  0.0115  1.0684  0.6820
    4ALA      C   35  13.286   9.139  12.368  0.4685 -0.2163 -0.0573
    4ALA      O   36  13.250   9.069  12.467 -0.2712  0.0254 -0.0860
    5NME      N   37  13.323   9.270  12.377 -0.1605 -0.3197 -0.4153
    5NME      H   38  13.395   9.304  12.314  0.3700  1.0407  0.8529
    5NME    CH3   39  13.329   9.338  12.512 -0.4450 -0.4631  0.2658
    5NME   HH31   40  13.230   9.366  12.547 -1.0371  1.5260 -2.7333
    5NME   HH32   41  13.385   9.276  12.584  0.5859 -0.1055 -0.2002
    5NME   HH33   42  13.396   9.423  12.504  0.7683 -1.4569 -0.5539
  20.91516  20.91516  20.91516
