Title
  129
    1AIB    CAY    1  22.500  19.568  21.315 -0.2573 -0.4042 -0.0549
    1AIB    HY1    2  22.446  19.618  21.398 -0.8866  1.3883 -1.4784
    1AIB    HY2    3  22.485  19.458  21.316 -0.7879 -0.3322  0.9833
    1AIB    HY3    4  22.464  19.603  21.216 -2.9326 -0.1187  0.9358
    1AIB     CY    5  22.646  19.602  21.324  0.0663  0.0457  0.3470
    1AIB     OY    6  22.708  19.612  21.428  0.1359  0.2068  0.2696
    1AIB      N    7  22.708  19.617  21.208 -0.4855 -0.3448  0.5092
    1AIB     HN    8  22.662  19.598  21.121  1.9114  0.2698 -0.9944
    1AIB     CA    9  22.848  19.634  21.180 -0.1357 -0.0723 -0.1135
    1AIB    CB1   10  22.865  19.656  21.029 -0.0797  1.0594  0.0200
    1AIB   HB11   11  22.843  19.554  20.992  3.0549  0.6662 -0.9592
    1AIB   HB12   12  22.969  19.672  20.995  0.0374 -0.7033 -0.5254
    1AIB   HB13   13  22.789  19.723  20.983 -1.7848 -0.6649  0.2130
    1AIB    CB2   14  22.918  19.508  21.215 -0.2587  0.2308 -0.7711
    1AIB   HB21   15  22.909  19.479  21.321  1.3773  0.9628 -0.4082
    1AIB   HB22   16  23.026  19.522  21.191 -0.0326  1.2501  0.7374
    1AIB   HB23   17  22.876  19.426  21.152  2.3141  0.1148 -2.4739
    1AIB      C   18  22.914  19.752  21.255  0.6582 -0.6260  0.0207
    1AIB      O   19  23.035  19.745  21.286  0.1264 -0.0610  0.4513
    2AIB      N   20  22.837  19.861  21.289  0.1812  0.2710 -0.2640
    2AIB     HN   21  22.741  19.872  21.267 -0.4686 -1.5404  1.4021
    2AIB     CA   22  22.894  19.971  21.358 -0.4886 -0.1727  0.2450
    2AIB    CB1   23  22.782  20.074  21.399 -0.0614  0.3362 -0.3880
    2AIB   HB11   24  22.711  20.019  21.466 -1.3103  3.0415  0.6368
    2AIB   HB12   25  22.740  20.103  21.300 -0.4776  1.8500  0.2101
    2AIB   HB13   26  22.835  20.159  21.447 -0.0644  1.4908 -2.3285
    2AIB    CB2   27  22.989  20.053  21.267  0.5459  0.4420 -0.3802
    2AIB   HB21   28  23.046  20.121  21.334 -0.4415 -1.2961  2.4270
    2AIB   HB22   29  22.928  20.116  21.198  0.3080  1.9718  1.1491
    2AIB   HB23   30  23.060  19.989  21.211  0.7719 -0.5896  1.0531
    2AIB      C   31  22.969  19.929  21.485  0.9766  0.3294  0.2606
    2AIB      O   32  23.082  19.962  21.502 -0.2741 -0.0551  0.1189
    3AIB      N   33  22.900  19.848  21.577 -0.6515 -0.6157 -0.1481
    3AIB     HN   34  22.807  19.824  21.549 -0.5724 -0.2717 -0.7309
    3AIB     CA   35  22.941  19.811  21.713 -0.7623  0.1019 -0.1413
    3AIB    CB1   36  22.839  19.704  21.759  0.6221  0.1561 -0.6084
    3AIB   HB11   37  22.749  19.768  21.776  1.1470  1.3948 -2.3070
    3AIB   HB12   38  22.863  19.648  21.852  0.4538  1.4417  0.2404
    3AIB   HB13   39  22.813  19.639  21.673 -0.5211 -0.4598  0.1738
    3AIB    CB2   40  22.946  19.938  21.811 -0.5852  0.2514  0.6674
    3AIB   HB21   41  22.973  19.904  21.913 -0.4490  0.7707  0.8068
    3AIB   HB22   42  22.847  19.990  21.807 -0.3129  0.8065  1.1488
    3AIB   HB23   43  23.016  20.014  21.771 -2.5211  0.9513 -1.6399
    3AIB      C   44  23.082  19.735  21.722  0.5304 -0.5041 -0.0832
    3AIB      O   45  23.159  19.737  21.819  0.5544  0.0780  0.1286
    4AIB      N   46  23.112  19.660  21.607  0.5377  0.3721 -0.5040
    4AIB     HN   47  23.050  19.661  21.528 -0.6488  1.9743  0.4005
    4AIB     CA   48  23.221  19.574  21.584  0.5063  0.0052 -0.2135
    4AIB    CB1   49  23.177  19.483  21.470  0.2830  0.2196 -0.5809
    4AIB   HB11   50  23.165  19.533  21.372  1.5611 -0.9084 -1.3441
    4AIB   HB12   51  23.079  19.437  21.495 -0.1007  1.2463 -0.1732
    4AIB   HB13   52  23.259  19.408  21.457  0.4283  0.2113  0.2783
    4AIB    CB2   53  23.257  19.493  21.716  0.1325 -0.4789  0.3506
    4AIB   HB21   54  23.275  19.553  21.808 -1.1235  0.4309  0.0209
    4AIB   HB22   55  23.337  19.417  21.703 -1.8813 -3.0741  2.1064
    4AIB   HB23   56  23.161  19.443  21.741  0.2894 -1.5667 -1.0747
    4AIB      C   57  23.350  19.656  21.536  0.4897 -0.4998  0.2936
    4AIB      O   58  23.461  19.646  21.590  0.0340 -0.9198 -0.7008
    5AIB      N   59  23.331  19.746  21.437  0.2236  0.0580 -0.4447
    5AIB     HN   60  23.242  19.749  21.392 -1.3296 -1.5133  2.2409
    5AIB     CA   61  23.430  19.828  21.376 -0.0776 -0.2523 -0.5564
    5AIB    CB1   62  23.375  19.917  21.261 -0.6525 -0.1133  0.8499
    5AIB   HB11   63  23.282  19.966  21.294 -1.1191 -0.4396  0.0522
    5AIB   HB12   64  23.352  19.851  21.175 -0.7983 -0.8162  1.4220
    5AIB   HB13   65  23.452  19.993  21.234 -0.0131 -1.1548 -0.4044
    5AIB    CB2   66  23.547  19.741  21.305 -0.2101 -0.1513 -0.1449
    5AIB   HB21   67  23.598  19.682  21.385 -1.9033 -1.6408 -0.0907
    5AIB   HB22   68  23.620  19.811  21.260 -0.0579  0.1227  0.4939
    5AIB   HB23   69  23.503  19.671  21.231 -1.5943  1.3430 -0.7822
    5AIB      C   70  23.487  19.925  21.483  0.2567 -0.8374 -0.0991
    5AIB      O   71  23.604  19.931  21.516 -0.0098  0.8597 -0.2974
    6AIB      N   72  23.394  19.993  21.551  0.4317  0.1242 -0.5146
    6AIB     HN   73  23.296  19.980  21.540  0.7485 -3.1457 -0.6582
    6AIB     CA   74  23.419  20.084  21.663 -0.1153 -0.1541  0.3202
    6AIB    CB1   75  23.275  20.114  21.722 -0.7482  0.0150  0.1842
    6AIB   HB11   76  23.285  20.189  21.803 -0.6548 -3.2659  3.5055
    6AIB   HB12   77  23.228  20.022  21.764 -2.9264  1.3388  0.8315
    6AIB   HB13   78  23.209  20.155  21.643  0.1297  2.0820  0.4657
    6AIB    CB2   79  23.475  20.212  21.613  0.8412  0.0657 -0.9688
    6AIB   HB21   80  23.579  20.196  21.577  0.8992  0.2918 -0.9190
    6AIB   HB22   81  23.472  20.285  21.696  0.1674  1.4306 -2.1502
    6AIB   HB23   82  23.415  20.260  21.532  0.5189  1.6064  0.1459
    6AIB      C   83  23.514  20.029  21.777 -0.3751 -0.3913 -0.0689
    6AIB      O   84  23.612  20.097  21.815  0.0879 -0.0140 -0.4909
    7AIB      N   85  23.489  19.905  21.830  0.2158  0.4241 -0.9511
    7AIB     HN   86  23.417  19.845  21.795  0.7592 -1.6502  1.3089
    7AIB     CA   87  23.552  19.841  21.944  0.3437 -0.4203 -0.3837
    7AIB    CB1   88  23.476  19.706  21.963 -0.5274 -0.4233  0.2822
    7AIB   HB11   89  23.370  19.729  21.987 -0.7702  0.6418 -1.6293
    7AIB   HB12   90  23.526  19.646  22.043  1.3843  0.0665 -0.4894
    7AIB   HB13   91  23.489  19.653  21.866 -0.4086  1.0482 -0.5298
    7AIB    CB2   92  23.538  19.918  22.077 -0.2735  0.0371  0.4392
    7AIB   HB21   93  23.612  20.001  22.079  0.2217 -0.1744 -2.9011
    7AIB   HB22   94  23.556  19.859  22.169  1.1387  0.6978  0.6066
    7AIB   HB23   95  23.434  19.956  22.078 -0.3866  0.0380 -2.2356
    7AIB      C   96  23.700  19.808  21.906 -0.2228  0.6967 -0.3674
    7AIB      O   97  23.787  19.835  21.992 -0.8326 -0.3399 -0.1180
    8AIB      N   98  23.728  19.760  21.783  0.3968  0.0353 -0.8499
    8AIB     HN   99  23.653  19.753  21.717  0.5727 -0.9132 -0.9839
    8AIB     CA  100  23.850  19.722  21.722 -0.0416 -0.0849  0.1853
    8AIB    CB1  101  23.811  19.646  21.593  0.6454  0.3091  0.2363
    8AIB   HB11  102  23.889  19.581  21.547 -0.3196  0.2298 -1.3903
    8AIB   HB12  103  23.777  19.717  21.514  0.5596  0.8020  0.7123
    8AIB   HB13  104  23.722  19.581  21.608 -0.1856  1.9243  2.8796
    8AIB    CB2  105  23.927  19.628  21.821 -0.5473 -0.0744 -0.0400
    8AIB   HB21  106  23.861  19.552  21.866 -3.1117  2.5439  0.9843
    8AIB   HB22  107  23.970  19.684  21.907 -0.1133 -1.0969  0.4190
    8AIB   HB23  108  24.009  19.581  21.762 -0.5287  0.3936 -0.3937
    8AIB      C  109  23.945  19.842  21.698 -0.0036  0.2719  0.5849
    8AIB      O  110  24.066  19.826  21.727 -0.1401 -0.1305  0.1976
    9AIB      N  111  23.892  19.956  21.651  0.3093 -0.8000  0.6270
    9AIB     HN  112  23.796  19.959  21.625  0.7837  1.0282 -1.1574
    9AIB     CA  113  23.967  20.081  21.635 -0.0090  0.0724 -0.2310
    9AIB    CB1  114  23.867  20.183  21.587 -0.9342  0.0889  0.0830
    9AIB   HB11  115  23.783  20.206  21.657 -2.4793  0.1970 -1.7107
    9AIB   HB12  116  23.820  20.150  21.491  0.0270 -2.6086  0.4724
    9AIB   HB13  117  23.912  20.281  21.561 -0.8948  0.0056 -0.1721
    9AIB    CB2  118  24.085  20.071  21.529 -0.0050 -0.8193  0.5509
    9AIB   HB21  119  24.158  19.994  21.562  2.9015  0.9053 -1.3940
    9AIB   HB22  120  24.136  20.169  21.517 -3.0164  0.8104 -0.2161
    9AIB   HB23  121  24.034  20.026  21.441 -1.7757  0.7165  0.7124
    9AIB      C  122  24.024  20.137  21.769  0.0832  0.0638 -0.4419
    9AIB      O  123  24.126  20.199  21.768  0.0322  0.2883 -0.1523
    9AIB     NT  124  23.957  20.115  21.880 -0.5089  0.3990 -0.2650
    9AIB    HNT  125  23.878  20.055  21.873  0.4025 -1.2585  2.1362
    9AIB    CAT  126  24.002  20.170  22.007  0.4032 -0.1944  0.1687
    9AIB    HT1  127  24.092  20.117  22.045  0.3309 -0.3441  0.1305
    9AIB    HT2  128  23.917  20.143  22.073  0.0033 -1.1383 -0.7071
    9AIB    HT3  129  24.016  20.280  21.998 -0.5645 -0.0197  0.7546
  42.09246  42.09246  42.09246
