Protein
   32
    1ACE   HH31    1  12.972  13.561  12.381  1.0895  0.3897  2.6875
    1ACE    CH3    2  12.918  13.655  12.395  0.0757  0.3812 -0.2886
    1ACE   HH32    3  12.840  13.668  12.320 -1.1586  1.1026  1.0859
    1ACE   HH33    4  12.987  13.738  12.383  0.2729  0.2605 -0.0045
    1ACE      C    5  12.858  13.648  12.533  0.0635 -0.6099 -0.0596
    1ACE      O    6  12.930  13.609  12.629  0.4159 -0.2234 -0.0436
    2ALA      N    7  12.726  13.684  12.540  0.5534 -0.4989  0.1203
    2ALA      H    8  12.672  13.702  12.457  1.1648  0.6647 -0.0577
    2ALA     CA    9  12.651  13.693  12.670  0.3018 -0.2675 -0.5981
    2ALA     HA   10  12.664  13.606  12.734  0.9392  2.0846  2.7780
    2ALA     CB   11  12.722  13.809  12.751  0.0312 -0.1425 -0.4180
    2ALA    HB1   12  12.684  13.906  12.718 -2.8154 -0.6485  1.0281
    2ALA    HB2   13  12.703  13.797  12.858 -0.4173  0.1951 -0.4523
    2ALA    HB3   14  12.830  13.806  12.741  0.2141  2.3105  0.1163
    2ALA      C   15  12.496  13.720  12.655 -0.5462  0.6998 -0.4607
    2ALA      O   16  12.451  13.768  12.552  0.0500  0.1562 -0.4663
    3ALA      N   17  12.412  13.690  12.755  0.6638 -0.1956 -0.2755
    3ALA      H   18  12.451  13.648  12.839  0.5304  0.9207  0.3640
    3ALA     CA   19  12.272  13.739  12.762 -1.0124  0.7306 -0.7699
    3ALA     HA   20  12.200  13.685  12.700 -0.7855 -0.8098  0.2629
    3ALA     CB   21  12.209  13.698  12.898  0.7759  0.2755  1.0138
    3ALA    HB1   22  12.239  13.597  12.926  0.1914 -0.4452 -0.8742
    3ALA    HB2   23  12.258  13.755  12.977  0.9276  0.0995  1.0495
    3ALA    HB3   24  12.100  13.697  12.889  0.8627 -0.6780 -0.3069
    3ALA      C   25  12.256  13.886  12.736 -0.2959  0.4259  0.5676
    3ALA      O   26  12.297  13.976  12.814  0.3584 -0.7250 -0.5119
    4NME      N   27  12.195  13.917  12.617  0.2515 -0.0806  0.1698
    4NME      H   28  12.201  13.849  12.542 -0.1641  1.2092 -1.1070
    4NME    CH3   29  12.180  14.059  12.571 -0.3164 -0.3268 -0.6081
    4NME   HH31   30  12.153  14.116  12.659  1.2550 -0.5816  0.0871
    4NME   HH32   31  12.279  14.089  12.538  0.2354  0.1391  1.3193
    4NME   HH33   32  12.107  14.055  12.490 -0.8472  0.9604 -0.2034
  20.99041  20.99041  20.99041
