Protein
   42
    1ACE   HH31    1   7.318   8.911  10.713 -1.0744  0.8148 -0.2921
    1ACE    CH3    2   7.416   8.863  10.711 -1.1260  0.7243 -0.7340
    1ACE   HH32    3   7.403   8.758  10.685 -0.1728  0.1266  0.9950
    1ACE   HH33    4   7.450   8.874  10.814 -0.7667  0.8301 -0.8631
    1ACE      C    5   7.517   8.925  10.618  0.0122  0.3180 -0.7727
    1ACE      O    6   7.618   8.978  10.658  0.1761 -0.0787  0.1472
    2ALA      N    7   7.480   8.925  10.490  0.2614  0.3288 -0.4976
    2ALA      H    8   7.386   8.894  10.470  0.9828 -1.3159 -1.6791
    2ALA     CA    9   7.550   8.998  10.388 -0.0610  0.0194  0.2725
    2ALA     HA   10   7.655   8.971  10.399 -0.0247  0.6095  1.4843
    2ALA     CB   11   7.498   8.947  10.252 -0.2006 -0.7275  0.1219
    2ALA    HB1   12   7.398   8.985  10.232 -0.8004 -1.3134  1.8813
    2ALA    HB2   13   7.568   8.988  10.178  2.0849  0.5246  2.7847
    2ALA    HB3   14   7.509   8.838  10.255  0.2608 -0.6773  0.4383
    2ALA      C   15   7.534   9.148  10.409 -0.9466 -0.1457  0.6626
    2ALA      O   16   7.429   9.207  10.401 -0.3950  0.4495 -0.1497
    3ALA      N   17   7.639   9.227  10.426 -0.3121  0.6812  0.3110
    3ALA      H   18   7.602   9.318  10.449 -1.5765 -0.1101  1.6231
    3ALA     CA   19   7.791   9.203  10.438  0.6315  0.8831 -0.4117
    3ALA     HA   20   7.824   9.107  10.398  0.4298  0.1618  1.1248
    3ALA     CB   21   7.863   9.309  10.357 -0.1656 -0.1958  0.1004
    3ALA    HB1   22   7.968   9.308  10.389  0.1349 -1.6098 -0.7806
    3ALA    HB2   23   7.861   9.286  10.250  0.4478 -0.0785  0.0591
    3ALA    HB3   24   7.815   9.407  10.367  1.2659  0.5451  0.0661
    3ALA      C   25   7.843   9.203  10.580 -0.3261  0.1742 -0.6939
    3ALA      O   26   7.933   9.136  10.623 -0.5185  0.1381  0.1259
    4ALA      N   27   7.778   9.289  10.664 -0.3399  0.5376 -0.0870
    4ALA      H   28   7.706   9.337  10.612 -1.8474 -1.2317  0.2859
    4ALA     CA   29   7.784   9.322  10.806  1.2168 -0.1128 -0.0896
    4ALA     HA   30   7.859   9.401  10.805  2.8856 -1.6238  0.7686
    4ALA     CB   31   7.651   9.380  10.858 -0.1924  0.1357 -0.6166
    4ALA    HB1   32   7.673   9.422  10.956 -1.9762  0.5710 -0.3663
    4ALA    HB2   33   7.627   9.464  10.793 -0.9656  1.4063  1.2181
    4ALA    HB3   34   7.574   9.302  10.863 -1.3877  1.3397  0.5748
    4ALA      C   35   7.842   9.209  10.902 -0.0799 -0.0416  0.6005
    4ALA      O   36   7.913   9.239  10.995 -1.1303 -0.3328  0.3919
    5NME      N   37   7.806   9.081  10.874 -0.9490 -1.0179  0.0380
    5NME      H   38   7.756   9.070  10.787 -1.2937  2.3282 -0.3215
    5NME    CH3   39   7.872   8.971  10.930 -0.3347  0.3320  0.0747
    5NME   HH31   40   7.913   8.905  10.854  0.2577  0.6131  0.1388
    5NME   HH32   41   7.947   9.018  10.994 -0.6706  1.5082 -0.3552
    5NME   HH33   42   7.794   8.923  10.990  0.7376  0.5970  1.7607
  20.91516  20.91516  20.91516
