Protein
   22
    1ACE   HH31    1   5.117   9.906   7.179 -0.8461 -0.5827 -1.6176
    1ACE    CH3    2   5.042   9.984   7.194  0.5482  0.5082 -0.0944
    1ACE   HH32    3   5.087  10.082   7.178  0.2213  1.0466  1.8749
    1ACE   HH33    4   5.013   9.986   7.300  1.2263  0.4535  0.0965
    1ACE      C    5   4.923   9.955   7.108 -0.0982 -1.0029  0.2547
    1ACE      O    6   4.820   9.900   7.146 -0.3500 -0.4904  0.3112
    2ALA      N    7   4.946   9.983   6.979 -0.0113  0.2317 -0.0802
    2ALA      H    8   5.037  10.014   6.949  0.4836 -0.0620  1.0688
    2ALA     CA    9   4.857   9.954   6.867  0.5319 -0.5360 -0.0835
    2ALA     HA   10   4.899   9.998   6.777  1.3589 -1.0563  0.0381
    2ALA     CB   11   4.863   9.801   6.829 -0.1500  0.6174  0.0456
    2ALA    HB1   12   4.796   9.784   6.744 -1.1081 -0.0482  0.9050
    2ALA    HB2   13   4.963   9.774   6.794 -0.7960 -0.0941 -1.3869
    2ALA    HB3   14   4.830   9.728   6.903 -2.4740  1.8466  0.2937
    2ALA      C   15   4.716  10.014   6.877  0.3622 -0.3482 -0.0802
    2ALA      O   16   4.673  10.068   6.778 -0.2998  0.3328 -0.2108
    3NME      N   17   4.631  10.002   6.987 -0.5574 -0.4535  1.3636
    3NME      H   18   4.673   9.954   7.066  0.1905  0.9340  1.8321
    3NME    CH3   19   4.491  10.044   6.991  0.4254  0.6167 -0.0683
    3NME   HH31   20   4.450  10.049   6.890 -0.4698  0.4512  0.2812
    3NME   HH32   21   4.427   9.978   7.050 -0.4487  1.3600 -0.1614
    3NME   HH33   22   4.471  10.135   7.048 -0.0872  0.7495 -0.4550
  10.72160  10.72160  10.72160
