Protein
   42
    1ACE   HH31    1  11.364  14.194  10.086 -0.1686  0.2337 -0.5818
    1ACE    CH3    2  11.324  14.159   9.991 -0.7993  0.3949 -0.3831
    1ACE   HH32    3  11.234  14.102  10.014 -0.4169 -1.4223 -2.9155
    1ACE   HH33    4  11.400  14.092   9.950 -1.8090 -0.8024 -0.3442
    1ACE      C    5  11.298  14.276   9.907  0.4359  0.1587  0.2182
    1ACE      O    6  11.190  14.328   9.909 -0.1709 -0.6889  0.2030
    2ALA      N    7  11.397  14.326   9.839 -0.7923  0.5554 -0.6282
    2ALA      H    8  11.480  14.270   9.852 -1.3224  0.2894  1.8967
    2ALA     CA    9  11.404  14.447   9.762 -0.4440  0.0475 -0.1685
    2ALA     HA   10  11.334  14.432   9.680  0.2037 -2.4094 -0.3548
    2ALA     CB   11  11.366  14.566   9.848 -0.2298 -0.5745 -0.2652
    2ALA    HB1   12  11.453  14.576   9.912  1.1886  0.1584 -2.2022
    2ALA    HB2   13  11.356  14.659   9.792  0.6474  0.5796  1.3958
    2ALA    HB3   14  11.273  14.556   9.905 -0.9519 -0.3590 -1.3561
    2ALA      C   15  11.549  14.466   9.713 -0.7213  0.4337 -0.6046
    2ALA      O   16  11.635  14.381   9.743 -0.0182 -0.0646 -0.1482
    3ALA      N   17  11.586  14.578   9.649  0.7236 -0.7358 -0.0597
    3ALA      H   18  11.512  14.647   9.637  0.4922 -0.3584  2.9479
    3ALA     CA   19  11.714  14.627   9.608 -1.4093 -0.1627  0.4640
    3ALA     HA   20  11.692  14.702   9.532  0.1707  0.4309  0.5457
    3ALA     CB   21  11.787  14.699   9.725  1.0824  0.0754 -0.6320
    3ALA    HB1   22  11.718  14.758   9.787  0.1676 -1.5097 -0.1091
    3ALA    HB2   23  11.840  14.626   9.786 -0.1954 -2.0476 -1.9251
    3ALA    HB3   24  11.849  14.773   9.675 -0.9478  1.3665 -1.3979
    3ALA      C   25  11.826  14.532   9.539  0.6059 -0.4453 -0.8808
    3ALA      O   26  11.936  14.578   9.522 -0.1038 -0.0489 -0.3090
    4ALA      N   27  11.789  14.404   9.516 -0.2682  0.4186 -0.4937
    4ALA      H   28  11.701  14.371   9.552 -0.7537  1.9498 -0.2326
    4ALA     CA   29  11.879  14.308   9.445  0.3149 -0.1122  0.5052
    4ALA     HA   30  11.810  14.232   9.407  0.1501  0.0411  0.4926
    4ALA     CB   31  11.934  14.373   9.322 -0.6833  0.0926  0.6754
    4ALA    HB1   32  11.953  14.288   9.256 -1.7478 -2.4214  3.3711
    4ALA    HB2   33  11.855  14.433   9.275 -1.6097 -0.9140  0.8931
    4ALA    HB3   34  12.026  14.428   9.339 -0.7221  0.5129 -0.3639
    4ALA      C   35  11.972  14.232   9.543  0.3439  0.1825  0.3539
    4ALA      O   36  11.987  14.110   9.538 -0.1386 -0.1689 -0.4585
    5NME      N   37  12.052  14.300   9.624  0.2339 -0.1869 -0.1133
    5NME      H   38  12.038  14.400   9.626  0.5383 -0.1482  0.1140
    5NME    CH3   39  12.158  14.244   9.705  0.2242  0.1495  0.2644
    5NME   HH31   40  12.229  14.324   9.728 -0.1204  1.0958 -1.7704
    5NME   HH32   41  12.114  14.201   9.795 -0.9746  0.1915 -0.2752
    5NME   HH33   42  12.216  14.168   9.655  2.3056  1.2513  0.8970
  20.91516  20.91516  20.91516
