Protein
   42
    1ACE   HH31    1  15.844  17.982   2.460 -0.3927  2.7320 -2.2364
    1ACE    CH3    2  15.864  17.924   2.370  0.1096 -1.0401  0.0569
    1ACE   HH32    3  15.942  17.848   2.381  0.2681 -0.7835  0.7193
    1ACE   HH33    4  15.897  18.005   2.305 -1.5011 -0.3538  0.0362
    1ACE      C    5  15.730  17.865   2.335 -0.8030 -0.1980 -0.1774
    1ACE      O    6  15.636  17.879   2.412 -0.7164 -0.1803  0.2873
    2ALA      N    7  15.721  17.788   2.225  0.4507 -0.0279  0.8651
    2ALA      H    8  15.809  17.781   2.176  0.9577  0.4589  1.6611
    2ALA     CA    9  15.611  17.689   2.191 -0.5837  0.4492 -1.2880
    2ALA     HA   10  15.651  17.608   2.129  0.6963  0.3563 -0.3734
    2ALA     CB   11  15.558  17.614   2.317  0.1715  0.1312 -0.2709
    2ALA    HB1   12  15.475  17.664   2.367 -0.0572 -1.0315  0.5248
    2ALA    HB2   13  15.529  17.515   2.281 -0.6509  0.8180 -1.6066
    2ALA    HB3   14  15.630  17.580   2.391 -2.2601 -2.8791  0.8936
    2ALA      C   15  15.506  17.753   2.108  1.0920  0.2097  0.4478
    2ALA      O   16  15.435  17.678   2.042  0.0246  0.2152 -0.3592
    3ALA      N   17  15.476  17.883   2.119 -0.1573  0.0422 -0.1527
    3ALA      H   18  15.515  17.936   2.195  1.6586  2.5742 -2.6146
    3ALA     CA   19  15.376  17.955   2.044  0.6433 -0.5415 -0.4134
    3ALA     HA   20  15.360  18.051   2.093 -1.0784 -1.8154  1.7376
    3ALA     CB   21  15.424  17.988   1.890  0.1620  0.0424 -0.8606
    3ALA    HB1   22  15.380  18.083   1.861 -1.9663  0.3533  2.8318
    3ALA    HB2   23  15.532  17.999   1.875  0.8385  0.8550  3.3279
    3ALA    HB3   24  15.387  17.913   1.820  0.2054 -2.2108  1.3916
    3ALA      C   25  15.233  17.907   2.063 -0.0974 -0.1140  0.1501
    3ALA      O   26  15.156  17.971   2.134  0.1604 -0.1256 -0.6989
    4ALA      N   27  15.194  17.805   1.992 -0.0930  0.1275  0.0257
    4ALA      H   28  15.267  17.768   1.932 -1.3232  0.7714 -1.9653
    4ALA     CA   29  15.058  17.753   1.991  0.8178 -0.2437 -0.5248
    4ALA     HA   30  14.987  17.826   2.030  0.9482 -0.8651  0.9964
    4ALA     CB   31  15.010  17.741   1.853 -0.1696 -0.2584  0.2495
    4ALA    HB1   32  15.069  17.670   1.795 -1.1382  0.6422 -1.9261
    4ALA    HB2   33  14.908  17.703   1.848  0.2980 -1.4049 -1.4509
    4ALA    HB3   34  15.021  17.834   1.797  0.5525 -2.0686 -2.9130
    4ALA      C   35  15.047  17.622   2.069 -0.5848  1.0729 -0.3408
    4ALA      O   36  14.937  17.556   2.071 -0.2520  0.7271  0.2637
    5NME      N   37  15.160  17.568   2.115 -0.3403 -0.2979  0.3243
    5NME      H   38  15.246  17.616   2.092  0.1390 -0.7766  1.0895
    5NME    CH3   39  15.180  17.427   2.162 -0.3967 -0.6039  0.0691
    5NME   HH31   40  15.094  17.371   2.127 -0.0910 -1.0795  0.0727
    5NME   HH32   41  15.278  17.388   2.134  0.5474  0.0740  2.2040
    5NME   HH33   42  15.172  17.419   2.271  0.1470 -1.6918  0.0425
  20.91516  20.91516  20.91516
