Protein
   42
    1ACE   HH31    1   5.836   6.902  10.263  1.7836  2.2743  0.3870
    1ACE    CH3    2   5.888   6.888  10.168  0.2168 -0.4043 -0.1529
    1ACE   HH32    3   5.838   6.963  10.107 -1.8072  0.9743  2.9709
    1ACE   HH33    4   5.874   6.788  10.127 -2.4051 -0.6895  1.2101
    1ACE      C    5   6.031   6.923  10.198  0.3962 -0.5125 -1.1406
    1ACE      O    6   6.057   7.044  10.220  0.1956 -0.1407 -0.0115
    2ALA      N    7   6.120   6.824  10.206 -0.1067  0.0618  0.7789
    2ALA      H    8   6.085   6.730  10.218  1.5693 -0.5113  1.5754
    2ALA     CA    9   6.267   6.841  10.237  0.2962  0.4829  0.4638
    2ALA     HA   10   6.285   6.851  10.344  1.8531 -0.6239  0.3292
    2ALA     CB   11   6.336   6.711  10.191 -0.3021 -0.5666 -0.0235
    2ALA    HB1   12   6.444   6.728  10.184 -0.3061 -0.2236  0.6227
    2ALA    HB2   13   6.319   6.640  10.273  0.4701 -0.1169  0.5431
    2ALA    HB3   14   6.305   6.682  10.091  0.5993  1.9858 -1.1319
    2ALA      C   15   6.347   6.963  10.174 -0.0897 -0.7726  0.8820
    2ALA      O   16   6.426   7.034  10.243  0.2838 -0.3958  0.2359
    3ALA      N   17   6.318   6.992  10.044 -0.7772 -0.4098 -0.1472
    3ALA      H   18   6.260   6.924   9.995 -0.0339 -0.5926 -0.7825
    3ALA     CA   19   6.350   7.114   9.965  0.2035  0.0535 -0.1957
    3ALA     HA   20   6.403   7.081   9.875  0.8994  0.9721 -0.1408
    3ALA     CB   21   6.216   7.180   9.919  0.5012  0.0908 -0.1834
    3ALA    HB1   22   6.157   7.102   9.871  0.0353  0.2679  0.0909
    3ALA    HB2   23   6.160   7.241   9.990 -1.4157 -1.0900 -0.6102
    3ALA    HB3   24   6.247   7.247   9.838 -0.9836  0.5361 -0.4034
    3ALA      C   25   6.453   7.216  10.029  0.4449  0.4937 -0.1035
    3ALA      O   26   6.573   7.214   9.992  0.0107 -0.2947  0.7909
    4ALA      N   27   6.396   7.299  10.118 -0.0436  0.2929 -1.0696
    4ALA      H   28   6.302   7.285  10.150 -0.6693  1.5980 -2.1925
    4ALA     CA   29   6.476   7.411  10.176 -0.1041 -0.0978  0.1664
    4ALA     HA   30   6.582   7.384  10.179  0.3678  0.9010 -2.9202
    4ALA     CB   31   6.449   7.530  10.080 -0.2839  0.5351 -0.7582
    4ALA    HB1   32   6.493   7.621  10.122 -1.0028  0.8498 -0.6732
    4ALA    HB2   33   6.493   7.495   9.987 -1.0542 -1.4596 -0.4253
    4ALA    HB3   34   6.344   7.557  10.066  0.2533  2.5838 -1.2647
    4ALA      C   35   6.451   7.434  10.322  0.2646 -0.3360 -0.1834
    4ALA      O   36   6.475   7.542  10.381 -0.3547  0.1455  0.2192
    5NME      N   37   6.409   7.327  10.385  0.3418 -0.5810 -0.6123
    5NME      H   38   6.409   7.245  10.326  1.4654  0.1910 -1.7441
    5NME    CH3   39   6.369   7.319  10.529 -0.2798 -0.0151  0.3575
    5NME   HH31   40   6.322   7.223  10.547  1.0446 -0.4925  1.4387
    5NME   HH32   41   6.454   7.326  10.597 -0.5835 -2.0476  1.0077
    5NME   HH33   42   6.291   7.390  10.558  1.5312  2.1483  0.1963
  20.91516  20.91516  20.91516
