Protein
   22
    1ACE   HH31    1   4.126   4.575   5.198  2.8682  1.8739 -1.5552
    1ACE    CH3    2   4.061   4.624   5.125 -0.0453  0.1683 -0.2754
    1ACE   HH32    3   3.959   4.638   5.161 -1.1257 -1.1421 -2.5811
    1ACE   HH33    4   4.061   4.561   5.036  1.3478  0.6461 -0.6457
    1ACE      C    5   4.119   4.750   5.084  0.5208  0.3670  0.0027
    1ACE      O    6   4.062   4.813   5.000  0.5120 -0.3464  0.5944
    2ALA      N    7   4.227   4.796   5.147 -0.6482 -0.0258  0.6215
    2ALA      H    8   4.273   4.734   5.212 -0.6512 -2.9548 -1.9618
    2ALA     CA    9   4.312   4.917   5.109  0.0420  0.7336  0.2716
    2ALA     HA   10   4.321   4.927   5.001 -2.0464 -1.7095 -0.2410
    2ALA     CB   11   4.248   5.049   5.154 -0.2050 -0.3558  0.1798
    2ALA    HB1   12   4.246   5.051   5.263 -0.4255 -1.2046  0.1961
    2ALA    HB2   13   4.309   5.133   5.121 -1.8357 -0.2402 -2.9333
    2ALA    HB3   14   4.152   5.058   5.104 -0.1264 -0.5745 -0.0133
    2ALA      C   15   4.453   4.891   5.168 -0.4550  0.4997 -0.1878
    2ALA      O   16   4.487   4.774   5.193  0.3090  0.6369  0.8810
    3NME      N   17   4.527   4.991   5.207 -0.3495  0.2106 -0.1985
    3NME      H   18   4.490   5.084   5.192  0.3806  0.9216  2.0754
    3NME    CH3   19   4.656   4.982   5.271 -0.2577  0.0026 -0.0209
    3NME   HH31   20   4.735   4.964   5.199 -1.0833 -2.0454 -0.4971
    3NME   HH32   21   4.665   5.077   5.323 -0.2048  0.1965 -0.3854
    3NME   HH33   22   4.654   4.901   5.345 -1.3394  0.9659  1.0528
  10.72160  10.72160  10.72160
