Protein
   32
    1ACE   HH31    1   6.369  13.154  12.395 -1.6024 -0.6198  0.7541
    1ACE    CH3    2   6.417  13.162  12.493  0.1389 -0.1039 -0.1152
    1ACE   HH32    3   6.512  13.216  12.494 -1.3032  2.5826  0.7391
    1ACE   HH33    4   6.439  13.061  12.528 -1.1082 -0.8840 -1.4613
    1ACE      C    5   6.319  13.227  12.584  0.4509  0.0453 -0.3059
    1ACE      O    6   6.350  13.304  12.677  0.4177  0.1595  0.1529
    2ALA      N    7   6.193  13.193  12.555 -0.4091  0.6093  0.3985
    2ALA      H    8   6.181  13.129  12.477  2.1359  0.2255  0.2511
    2ALA     CA    9   6.065  13.241  12.614 -0.4785 -0.2543  0.0395
    2ALA     HA   10   6.082  13.348  12.624 -1.9527  0.1796 -1.6725
    2ALA     CB   11   5.962  13.228  12.503 -0.2856  0.2508 -1.0262
    2ALA    HB1   12   5.939  13.125  12.473  1.0688 -0.8012  1.3188
    2ALA    HB2   13   5.865  13.264  12.537 -0.4980 -0.7183 -0.5435
    2ALA    HB3   14   5.996  13.294  12.423 -1.0212  1.8438 -0.0959
    2ALA      C   15   6.024  13.194  12.755  0.6711 -0.3187  0.2912
    2ALA      O   16   5.903  13.183  12.778  0.1226 -0.2678 -0.1858
    3ALA      N   17   6.115  13.201  12.849  0.2250  0.3814 -0.3023
    3ALA      H   18   6.199  13.254  12.832 -0.3728  1.0266 -1.3286
    3ALA     CA   19   6.111  13.129  12.979  0.3379 -0.1645 -0.4492
    3ALA     HA   20   6.212  13.099  13.006  0.8347  0.4997 -1.5271
    3ALA     CB   21   6.067  13.229  13.089  0.3793  0.2218  0.6052
    3ALA    HB1   22   5.976  13.282  13.059  1.5369  1.0401 -1.7058
    3ALA    HB2   23   6.053  13.194  13.191  1.5984  2.9686  1.7884
    3ALA    HB3   24   6.156  13.292  13.093 -0.0622  0.8491  0.6972
    3ALA      C   25   6.031  13.001  12.995  0.0693 -0.1274  0.4656
    3ALA      O   26   6.095  12.901  13.022  0.1130 -0.3825  0.0714
    4NME      N   27   5.895  12.995  12.982  0.0657 -0.4292 -0.3346
    4NME      H   28   5.850  13.085  12.969  2.1777  0.7863  0.3591
    4NME    CH3   29   5.812  12.876  13.013  0.2137 -0.6766  0.0042
    4NME   HH31   30   5.704  12.892  13.005  0.1192 -0.0668  2.1371
    4NME   HH32   31   5.838  12.793  12.946  0.5260 -0.5137 -0.0820
    4NME   HH33   32   5.833  12.839  13.113  1.2856  1.1968  0.5236
  20.99041  20.99041  20.99041
