Protein
   42
    1ACE   HH31    1   2.841   9.366  13.294  0.4512 -0.7047  2.8012
    1ACE    CH3    2   2.879   9.266  13.274 -0.1181 -0.4533  0.0542
    1ACE   HH32    3   2.802   9.197  13.310  0.7917 -1.3492  0.3268
    1ACE   HH33    4   2.966   9.243  13.335  1.2675  2.6757 -0.5455
    1ACE      C    5   2.903   9.252  13.125  0.2145  0.1398 -0.2147
    1ACE      O    6   2.854   9.153  13.074  0.2157  0.2401  0.7156
    2ALA      N    7   2.945   9.355  13.051 -0.1792 -0.1529  0.8904
    2ALA      H    8   2.973   9.442  13.096  2.0767 -0.9651  1.1496
    2ALA     CA    9   2.930   9.368  12.908 -0.3519  0.6592  0.2844
    2ALA     HA   10   2.851   9.296  12.885 -0.6816  1.1139 -0.0045
    2ALA     CB   11   2.880   9.510  12.871  0.3568  0.5328  0.2726
    2ALA    HB1   12   2.949   9.585  12.912 -0.9057  1.7474  0.2467
    2ALA    HB2   13   2.867   9.534  12.766  1.8838  0.9554  0.1459
    2ALA    HB3   14   2.783   9.512  12.921  0.2432 -0.8387  0.1410
    2ALA      C   15   3.062   9.334  12.827 -0.2813  0.6825 -1.0004
    2ALA      O   16   3.162   9.396  12.857 -0.2512 -0.3163 -0.1634
    3ALA      N   17   3.081   9.249  12.725  0.0682 -0.3051 -0.1492
    3ALA      H   18   3.178   9.231  12.707 -0.2386 -0.8132 -1.3840
    3ALA     CA   19   2.971   9.179  12.661 -0.1448 -0.4582 -0.4006
    3ALA     HA   20   2.882   9.241  12.665  0.0855  0.0327 -2.0016
    3ALA     CB   21   3.011   9.167  12.514  0.0029 -0.4247  0.4345
    3ALA    HB1   22   2.930   9.117  12.461 -0.3422 -1.6817  2.0619
    3ALA    HB2   23   3.019   9.262  12.462 -1.2380 -1.0932 -1.0894
    3ALA    HB3   24   3.102   9.108  12.500 -0.2251 -1.0782  1.5987
    3ALA      C   25   2.942   9.034  12.718  0.3024 -0.4154  0.5401
    3ALA      O   26   2.827   9.000  12.703  0.7605  0.0570 -0.3520
    4ALA      N   27   3.039   8.963  12.782 -0.5285 -0.1874  0.6730
    4ALA      H   28   3.130   9.006  12.798 -1.0598  0.7758  1.2243
    4ALA     CA   29   3.033   8.819  12.821  0.1688 -0.3156  0.5552
    4ALA     HA   30   2.930   8.788  12.804 -0.3339  0.5677  1.8660
    4ALA     CB   31   3.121   8.741  12.725  0.1935 -0.1211  0.8545
    4ALA    HB1   32   3.110   8.768  12.620  1.1576 -1.1204  0.4822
    4ALA    HB2   33   3.224   8.757  12.756  1.3542 -2.0108 -1.5958
    4ALA    HB3   34   3.080   8.640  12.725 -1.6573  0.5370 -1.2147
    4ALA      C   35   3.059   8.787  12.974  0.8597  0.4910  0.4289
    4ALA      O   36   3.130   8.687  13.003 -0.1899 -0.1997  0.2059
    5NME      N   37   3.005   8.869  13.067  0.6254  0.0252  0.7595
    5NME      H   38   2.952   8.949  13.034 -0.0225  0.0053  1.7016
    5NME    CH3   39   3.032   8.862  13.216  0.1042  0.6621  0.3322
    5NME   HH31   40   3.101   8.785  13.248  0.5812  1.2792  0.8345
    5NME   HH32   41   3.084   8.952  13.248 -0.6213  0.6734  1.5271
    5NME   HH33   42   2.942   8.852  13.276 -1.1695 -1.3064 -1.7405
  20.91516  20.91516  20.91516
