Protein
   42
    1ACE   HH31    1   6.665   6.321  13.948 -1.3732 -1.3082 -0.8392
    1ACE    CH3    2   6.628   6.344  14.048  0.3762  0.4918 -0.5401
    1ACE   HH32    3   6.630   6.453  14.054 -0.5869  0.5862 -1.6261
    1ACE   HH33    4   6.691   6.290  14.119 -1.1868 -0.5042  0.1135
    1ACE      C    5   6.484   6.286  14.063 -0.0351 -0.3948 -0.4504
    1ACE      O    6   6.388   6.358  14.092  0.1990  0.1478  0.1431
    2ALA      N    7   6.477   6.156  14.062  0.3730  0.7517  0.0770
    2ALA      H    8   6.563   6.112  14.031  1.1442  1.4577  1.1331
    2ALA     CA    9   6.363   6.072  14.088  0.3541 -0.3424  0.0631
    2ALA     HA   10   6.407   5.973  14.080  2.2348  0.4624 -0.0197
    2ALA     CB   11   6.309   6.093  14.224  0.1591 -0.2271 -0.1159
    2ALA    HB1   12   6.272   6.194  14.239  1.4620  0.2413  0.0789
    2ALA    HB2   13   6.217   6.036  14.242  0.2829 -0.6410 -0.7738
    2ALA    HB3   14   6.388   6.065  14.294  0.6355 -3.3262 -1.6992
    2ALA      C   15   6.251   6.077  13.975 -0.4956 -0.6504 -0.3409
    2ALA      O   16   6.204   5.982  13.929  0.4954 -0.2672 -0.0437
    3ALA      N   17   6.212   6.199  13.935  0.2845  0.3089  0.9642
    3ALA      H   18   6.253   6.279  13.981 -2.2579  2.0777  0.4100
    3ALA     CA   19   6.136   6.226  13.812  0.4898  0.1981  1.1705
    3ALA     HA   20   6.076   6.140  13.782 -0.3655  1.3144 -0.4587
    3ALA     CB   21   6.039   6.350  13.821  0.2411  0.4559 -0.0416
    3ALA    HB1   22   6.099   6.440  13.840 -0.0269  0.7593 -0.6089
    3ALA    HB2   23   5.977   6.358  13.731 -0.2485  2.3166  0.4038
    3ALA    HB3   24   5.971   6.354  13.906 -1.7273 -1.3930 -1.4504
    3ALA      C   25   6.233   6.244  13.688 -0.0167  0.6684 -0.5354
    3ALA      O   26   6.194   6.243  13.570 -0.0842  0.0496 -0.3004
    4ALA      N   27   6.363   6.242  13.717  0.4102  0.8281  0.2289
    4ALA      H   28   6.385   6.230  13.815  2.6470  1.1937 -0.1763
    4ALA     CA   29   6.474   6.239  13.618  0.1214  0.2758 -0.6350
    4ALA     HA   30   6.425   6.205  13.527 -0.1103 -0.2381 -0.3268
    4ALA     CB   31   6.544   6.372  13.608  0.3355  0.1771 -0.6065
    4ALA    HB1   32   6.630   6.372  13.541  1.9293  1.2227  1.3167
    4ALA    HB2   33   6.473   6.444  13.567  0.3506  0.1210 -0.7364
    4ALA    HB3   34   6.579   6.397  13.708 -2.2146 -0.0674  0.4321
    4ALA      C   35   6.575   6.135  13.648  0.0383  0.1921  0.2099
    4ALA      O   36   6.592   6.110  13.770  0.4166  0.1155  1.0380
    5NME      N   37   6.647   6.083  13.554  0.7010 -0.7593 -0.0127
    5NME      H   38   6.634   6.104  13.456 -1.3162 -2.3784 -0.1847
    5NME    CH3   39   6.753   5.992  13.583  0.1737  0.3018  0.0451
    5NME   HH31   40   6.774   5.928  13.498 -0.8602  0.9271 -0.6931
    5NME   HH32   41   6.833   6.049  13.631  0.0785 -0.8629  1.6879
    5NME   HH33   42   6.730   5.915  13.657  0.5692  1.6144  1.6150
  20.91516  20.91516  20.91516
