Protein
   32
    1ACE   HH31    1   4.985   9.021  12.082 -0.2244 -0.7800 -1.5196
    1ACE    CH3    2   4.886   8.988  12.116 -0.0094 -0.4966 -0.5810
    1ACE   HH32    3   4.810   9.061  12.088  0.3508  0.4130  0.6512
    1ACE   HH33    4   4.895   8.981  12.225  0.6178 -0.5711 -0.6339
    1ACE      C    5   4.862   8.859  12.047  0.2192 -0.0855  0.0766
    1ACE      O    6   4.888   8.861  11.932  0.2875 -0.6178  0.0964
    2ALA      N    7   4.819   8.749  12.109  0.2781  0.0380  0.5214
    2ALA      H    8   4.784   8.758  12.204 -1.3668 -0.1684 -0.0376
    2ALA     CA    9   4.801   8.618  12.052  0.0003 -0.0567  0.1897
    2ALA     HA   10   4.769   8.561  12.139 -0.8093  0.9159  0.5612
    2ALA     CB   11   4.668   8.625  11.971  0.1776 -0.3961  0.3834
    2ALA    HB1   12   4.690   8.632  11.865  2.3802 -2.4244  0.6337
    2ALA    HB2   13   4.619   8.527  11.975  1.8644 -1.4486 -2.3647
    2ALA    HB3   14   4.596   8.702  11.999 -0.4696  0.6565 -3.5914
    2ALA      C   15   4.918   8.538  11.983 -0.2871 -0.1035 -0.2561
    2ALA      O   16   4.890   8.439  11.911 -0.1492 -0.3485  0.7866
    3ALA      N   17   5.048   8.561  12.014  0.0586 -0.4773  0.2933
    3ALA      H   18   5.065   8.643  12.071  1.9370  1.8409 -3.2484
    3ALA     CA   19   5.166   8.480  11.967  0.8836  0.0030  0.1041
    3ALA     HA   20   5.129   8.387  11.926 -2.3764  0.3377  1.9254
    3ALA     CB   21   5.244   8.535  11.844  0.0775 -0.5570 -0.5221
    3ALA    HB1   22   5.317   8.465  11.803  0.4154 -1.0205  0.8396
    3ALA    HB2   23   5.169   8.558  11.769 -1.6256  1.3376  1.6284
    3ALA    HB3   24   5.302   8.625  11.866  1.7863 -1.9193  0.8737
    3ALA      C   25   5.267   8.439  12.082  0.2848  0.2929  0.4028
    3ALA      O   26   5.385   8.433  12.070  0.1924 -0.4092  0.1281
    4NME      N   27   5.211   8.429  12.204 -0.1820 -0.7743  0.2378
    4NME      H   28   5.112   8.441  12.215  0.1878  3.4721  0.6701
    4NME    CH3   29   5.279   8.393  12.330  0.3321 -0.3443  0.5675
    4NME   HH31   30   5.319   8.292  12.321  0.6321 -0.3207  1.5466
    4NME   HH32   31   5.354   8.470  12.342 -0.9144  1.1769 -0.9459
    4NME   HH33   32   5.208   8.394  12.412 -0.2682  0.8136  0.0710
  20.99041  20.99041  20.99041
