Protein
   32
    1ACE   HH31    1  10.243   8.002  14.529 -0.3818 -0.6351  0.2141
    1ACE    CH3    2  10.156   8.067  14.515 -0.2740 -0.5274  0.0266
    1ACE   HH32    3  10.116   8.088  14.614  1.0416  2.4182  0.0344
    1ACE   HH33    4  10.080   8.016  14.455  0.0057 -0.7450 -0.1504
    1ACE      C    5  10.201   8.201  14.455 -0.1481  0.2949  0.3636
    1ACE      O    6  10.308   8.240  14.484 -0.4630  0.4288  0.0105
    2ALA      N    7  10.118   8.270  14.380  0.0117 -0.2521  0.3777
    2ALA      H    8  10.020   8.244  14.375  0.2112 -1.2515  1.1707
    2ALA     CA    9  10.157   8.402  14.315  0.3874 -0.1899 -0.0511
    2ALA     HA   10  10.242   8.389  14.249  0.6199  0.7491  0.0493
    2ALA     CB   11  10.048   8.443  14.213  0.0444 -0.3350  0.4548
    2ALA    HB1   12  10.077   8.537  14.166  0.4116  0.9304  3.0652
    2ALA    HB2   13  10.029   8.380  14.126  1.3360  0.2774 -0.3132
    2ALA    HB3   14   9.956   8.435  14.271 -0.4323 -0.8471 -0.3465
    2ALA      C   15  10.183   8.509  14.419  1.0827 -0.6068  0.7093
    2ALA      O   16  10.262   8.591  14.397  0.0681 -0.5129  0.4231
    3ALA      N   17  10.098   8.505  14.524 -0.6542 -0.0610 -0.0964
    3ALA      H   18  10.031   8.429  14.533 -0.4380 -0.2510 -0.0710
    3ALA     CA   19  10.101   8.595  14.643  0.0222  0.4323 -0.5777
    3ALA     HA   20  10.203   8.632  14.644  0.6000 -1.0787 -0.1735
    3ALA     CB   21  10.005   8.715  14.624 -0.0158  0.1539  0.2776
    3ALA    HB1   22  10.003   8.790  14.704  0.6434 -0.3376  0.7752
    3ALA    HB2   23  10.030   8.769  14.533  3.3106 -2.5976 -0.6242
    3ALA    HB3   24   9.903   8.675  14.622 -0.1971  0.5806  0.6806
    3ALA      C   25  10.083   8.516  14.775 -0.1329  0.2676 -0.5648
    3ALA      O   26   9.988   8.434  14.784  0.1172 -0.5914 -0.5393
    4NME      N   27  10.175   8.539  14.875  0.2535  0.1297 -0.1191
    4NME      H   28  10.248   8.606  14.855  1.8756 -1.5541 -0.2375
    4NME    CH3   29  10.157   8.486  15.012 -0.5678 -0.1642 -0.4201
    4NME   HH31   30  10.135   8.380  15.001  0.6967 -0.4470 -0.4075
    4NME   HH32   31  10.242   8.516  15.074  0.4828  1.6705 -2.5872
    4NME   HH33   32  10.065   8.528  15.052  0.8304  1.2833  1.4444
  20.99041  20.99041  20.99041
