Protein
   42
    1ACE   HH31    1   5.506  10.778   5.265 -1.0438  1.5369 -0.8635
    1ACE    CH3    2   5.607  10.796   5.227 -0.2564 -0.3875  0.1831
    1ACE   HH32    3   5.607  10.787   5.118 -3.2203 -1.1200  0.1677
    1ACE   HH33    4   5.667  10.723   5.282 -0.7414  0.6681  2.1930
    1ACE      C    5   5.654  10.932   5.269 -0.0670  0.2812 -1.0193
    1ACE      O    6   5.764  10.944   5.319 -0.0323  0.4815  0.2477
    2ALA      N    7   5.569  11.029   5.252  0.6319  0.0395 -0.6174
    2ALA      H    8   5.483  11.011   5.204  0.1581 -0.8705  0.5548
    2ALA     CA    9   5.564  11.160   5.320 -1.1768  0.4048 -0.0818
    2ALA     HA   10   5.585  11.143   5.425 -1.7640 -2.4020 -0.3548
    2ALA     CB   11   5.667  11.238   5.245  0.2983 -0.6023  0.4601
    2ALA    HB1   12   5.694  11.328   5.300  0.3159 -1.0052  1.1105
    2ALA    HB2   13   5.758  11.177   5.240 -0.2981 -1.5541  0.8181
    2ALA    HB3   14   5.623  11.269   5.150 -0.1483 -2.7517 -0.0968
    2ALA      C   15   5.431  11.231   5.306 -0.4417  0.1145 -0.3291
    2ALA      O   16   5.353  11.196   5.221 -0.3543  0.6209 -0.4155
    3ALA      N   17   5.403  11.336   5.381  0.1088  0.6544  0.3501
    3ALA      H   18   5.305  11.360   5.372  0.2400  0.6783 -1.5674
    3ALA     CA   19   5.487  11.402   5.482  1.0084 -0.1679  0.0388
    3ALA     HA   20   5.593  11.388   5.457  1.7105  1.8617  1.6253
    3ALA     CB   21   5.457  11.545   5.483  0.1102  0.1255 -0.0246
    3ALA    HB1   22   5.494  11.608   5.564  1.9858 -1.5776  0.5114
    3ALA    HB2   23   5.495  11.585   5.389  0.6887 -1.7033 -0.5925
    3ALA    HB3   24   5.348  11.555   5.481  0.1458  0.4401 -2.0926
    3ALA      C   25   5.454  11.358   5.625 -0.5716  0.0851 -0.5520
    3ALA      O   26   5.344  11.324   5.666  0.4131 -0.4639 -0.0407
    4ALA      N   27   5.561  11.359   5.703  0.0561 -0.1911 -0.8387
    4ALA      H   28   5.638  11.416   5.672  0.6069 -0.2071  0.4206
    4ALA     CA   29   5.574  11.301   5.838 -0.1935 -0.3275  0.3508
    4ALA     HA   30   5.501  11.220   5.844 -3.2201  2.2275  0.5630
    4ALA     CB   31   5.720  11.252   5.846  0.2119  0.2797 -0.5856
    4ALA    HB1   32   5.790  11.332   5.823  1.0650 -0.3419 -0.2231
    4ALA    HB2   33   5.743  11.220   5.948 -0.4599 -0.3281 -0.6136
    4ALA    HB3   34   5.744  11.176   5.773  2.2105  0.2517  0.0492
    4ALA      C   35   5.532  11.407   5.944  0.0572  0.0438 -0.4653
    4ALA      O   36   5.615  11.435   6.031 -0.2069 -0.0178  0.2470
    5NME      N   37   5.410  11.472   5.935 -0.3640  0.8059  0.3122
    5NME      H   38   5.352  11.448   5.856  0.5836 -0.4085 -0.0506
    5NME    CH3   39   5.357  11.549   6.040 -0.0633 -0.6930  0.3352
    5NME   HH31   40   5.421  11.635   6.061 -0.8313  0.5848 -2.1514
    5NME   HH32   41   5.262  11.585   6.001  0.5994  1.0925  0.2525
    5NME   HH33   42   5.356  11.496   6.135  0.8976  0.5284  1.0637
  20.91516  20.91516  20.91516
