Protein
   32
    1ACE   HH31    1  18.348   9.995   9.317  0.9114 -1.8707  1.0324
    1ACE    CH3    2  18.302  10.028   9.410  0.2365 -0.5890  0.2793
    1ACE   HH32    3  18.316   9.940   9.473 -1.1381 -2.0686 -1.3425
    1ACE   HH33    4  18.196  10.042   9.387  0.4003  0.8359  0.3100
    1ACE      C    5  18.359  10.160   9.460  0.0755  0.5362  0.1781
    1ACE      O    6  18.412  10.242   9.391  0.3532 -0.3647  0.4648
    2ALA      N    7  18.366  10.170   9.593  0.2255  0.1936 -0.7007
    2ALA      H    8  18.329  10.100   9.655  2.0693  1.8501  2.5401
    2ALA     CA    9  18.404  10.293   9.662  0.2949  0.4925  0.5485
    2ALA     HA   10  18.329  10.366   9.631 -0.1982 -0.5437 -0.7246
    2ALA     CB   11  18.387  10.273   9.818  0.8225  0.4028  0.0453
    2ALA    HB1   12  18.371  10.371   9.862 -1.8985 -0.0254  0.1782
    2ALA    HB2   13  18.299  10.212   9.839 -0.6220  1.8262 -1.5547
    2ALA    HB3   14  18.481  10.224   9.845  1.4360  0.7524 -1.3578
    2ALA      C   15  18.545  10.356   9.633  0.1559  0.9127 -0.7239
    2ALA      O   16  18.567  10.469   9.671  0.0710  0.0934  0.0954
    3ALA      N   17  18.637  10.289   9.566  0.2424 -0.5757  0.3688
    3ALA      H   18  18.586  10.216   9.517 -1.7078  0.4045  0.8606
    3ALA     CA   19  18.773  10.317   9.532 -0.7344 -0.6474 -0.3647
    3ALA     HA   20  18.797  10.423   9.547 -2.3375 -0.3117 -0.0642
    3ALA     CB   21  18.869  10.233   9.615 -0.0836 -0.5406  0.2334
    3ALA    HB1   22  18.847  10.127   9.620 -1.2530 -0.2502  3.6776
    3ALA    HB2   23  18.972  10.244   9.580 -0.3595 -0.0781 -0.4629
    3ALA    HB3   24  18.878  10.265   9.718 -0.6372 -1.3958  0.5592
    3ALA      C   25  18.796  10.301   9.377  0.1990 -0.4194  0.6475
    3ALA      O   26  18.911  10.273   9.334 -0.1620  0.2598 -0.3235
    4NME      N   27  18.693  10.322   9.295  0.5570 -0.6603  0.3826
    4NME      H   28  18.602  10.319   9.339 -0.2226 -0.8396 -1.1993
    4NME    CH3   29  18.693  10.304   9.152 -0.2816  0.1480  0.7237
    4NME   HH31   30  18.787  10.266   9.113  0.7461  1.8671  1.4387
    4NME   HH32   31  18.615  10.230   9.132  0.9199 -1.3214  1.3069
    4NME   HH33   32  18.662  10.399   9.108 -0.1401  0.2165  0.7655
  20.99041  20.99041  20.99041
