Protein
   42
    1ACE   HH31    1  15.887  11.376  12.172 -1.0300 -0.6803 -1.8526
    1ACE    CH3    2  15.935  11.332  12.259 -1.0717  1.0924 -0.8756
    1ACE   HH32    3  16.012  11.400  12.294 -0.6145  1.3071 -2.2374
    1ACE   HH33    4  15.993  11.245  12.226 -0.0256  0.3932  2.4203
    1ACE      C    5  15.820  11.296  12.355 -0.1655  0.1768 -0.0020
    1ACE      O    6  15.707  11.270  12.309 -0.3037 -0.6049 -0.7926
    2ALA      N    7  15.845  11.282  12.485 -0.0508  0.6184 -0.0461
    2ALA      H    8  15.934  11.311  12.522 -0.2971  1.9693 -0.4756
    2ALA     CA    9  15.752  11.227  12.592 -0.4278 -0.0107 -0.0610
    2ALA     HA   10  15.768  11.119  12.588 -1.2296 -0.1285 -3.1450
    2ALA     CB   11  15.812  11.283  12.727  0.4161  0.4217 -0.1907
    2ALA    HB1   12  15.774  11.381  12.756  0.7227  0.5834 -0.3224
    2ALA    HB2   13  15.778  11.215  12.805 -1.0057  1.7693  0.3930
    2ALA    HB3   14  15.920  11.299  12.718  0.3001  1.3532 -0.0585
    2ALA      C   15  15.601  11.249  12.584 -0.2556 -0.1196 -0.5933
    2ALA      O   16  15.514  11.163  12.605 -0.5102 -0.2762  0.7931
    3ALA      N   17  15.568  11.368  12.539  0.1677  0.1311  0.6608
    3ALA      H   18  15.638  11.438  12.522  0.3766  0.0251  1.0805
    3ALA     CA   19  15.427  11.400  12.513 -0.8900 -0.0564  0.0405
    3ALA     HA   20  15.375  11.371  12.604  0.3926 -2.5360  0.0749
    3ALA     CB   21  15.421  11.557  12.486  0.4576  0.5398 -0.4855
    3ALA    HB1   22  15.318  11.593  12.482 -0.0295 -0.8806 -1.9767
    3ALA    HB2   23  15.480  11.613  12.558  0.8307  0.4783 -0.7426
    3ALA    HB3   24  15.455  11.569  12.384  3.3614 -1.7448  0.0778
    3ALA      C   25  15.352  11.334  12.391  0.4064  0.2015 -0.1423
    3ALA      O   26  15.233  11.345  12.378 -0.4591 -0.1305 -0.0790
    4ALA      N   27  15.417  11.266  12.301 -0.0470  0.4880  0.5751
    4ALA      H   28  15.518  11.268  12.307  0.1876  0.1353 -2.0607
    4ALA     CA   29  15.365  11.207  12.177  0.4469  0.4940 -0.5044
    4ALA     HA   30  15.291  11.269  12.125 -2.5306 -0.1630  2.5757
    4ALA     CB   31  15.491  11.176  12.094  0.8891 -0.5595  0.0476
    4ALA    HB1   32  15.546  11.094  12.140  2.6197  0.7673  0.5153
    4ALA    HB2   33  15.463  11.152  11.992  0.6959 -1.5328  0.3237
    4ALA    HB3   34  15.556  11.262  12.076  1.1077 -0.8164 -0.4213
    4ALA      C   35  15.298  11.069  12.202  0.2612 -0.2746 -0.1853
    4ALA      O   36  15.254  11.011  12.105 -0.0259 -0.1937  0.7219
    5NME      N   37  15.298  11.018  12.327  0.8190  0.0651 -0.7568
    5NME      H   38  15.339  11.081  12.394  2.9386  1.2262 -3.0095
    5NME    CH3   39  15.251  10.887  12.368 -0.1360 -0.2533 -0.1684
    5NME   HH31   40  15.278  10.802  12.305  1.2974 -0.8495  1.1738
    5NME   HH32   41  15.287  10.865  12.469  0.2503  2.1790  0.2877
    5NME   HH33   42  15.142  10.890  12.371 -0.2792 -2.3675 -1.4627
  20.91516  20.91516  20.91516
