Protein
   42
    1ACE   HH31    1  13.236  11.751  16.910 -0.5168  0.0441  0.1800
    1ACE    CH3    2  13.199  11.654  16.942 -0.0548 -0.1804  0.0295
    1ACE   HH32    3  13.100  11.621  16.914 -0.9934 -0.2833  3.1046
    1ACE   HH33    4  13.198  11.656  17.051 -0.8667 -0.2058  0.0263
    1ACE      C    5  13.297  11.545  16.917  0.5301 -0.2825  0.0187
    1ACE      O    6  13.389  11.565  16.840 -0.2459 -0.8678  0.1260
    2ALA      N    7  13.267  11.434  16.975 -0.0581  0.0173 -0.1978
    2ALA      H    8  13.168  11.422  16.986 -0.0587 -0.3542 -0.5786
    2ALA     CA    9  13.344  11.312  16.986  0.1770  0.5035 -0.2826
    2ALA     HA   10  13.414  11.307  16.903 -0.9356 -1.3336 -1.1530
    2ALA     CB   11  13.418  11.324  17.117 -0.0773  0.1392  0.3238
    2ALA    HB1   12  13.497  11.252  17.132 -1.0802 -0.5907  2.6444
    2ALA    HB2   13  13.460  11.424  17.111 -2.5406  1.2139 -0.5841
    2ALA    HB3   14  13.346  11.326  17.199 -0.6851  1.2321 -0.2038
    2ALA      C   15  13.239  11.199  16.968  0.1720  0.2301  0.9938
    2ALA      O   16  13.132  11.211  16.908 -0.0472 -0.2777 -0.3018
    3ALA      N   17  13.257  11.090  17.034  0.2577 -0.3672  0.3399
    3ALA      H   18  13.330  11.103  17.103 -0.0464  3.0867  0.1792
    3ALA     CA   19  13.228  10.950  16.994 -0.3320  0.1604  0.0094
    3ALA     HA   20  13.313  10.891  17.030 -0.8818 -0.9496 -0.4654
    3ALA     CB   21  13.104  10.915  17.082 -0.2481  0.5778  0.3282
    3ALA    HB1   22  13.114  10.807  17.093  1.0063  0.8138  2.1415
    3ALA    HB2   23  13.122  10.944  17.186  0.1872 -0.2502  0.5005
    3ALA    HB3   24  13.009  10.937  17.034  0.5006  0.2724 -1.3582
    3ALA      C   25  13.209  10.908  16.845  0.8847  0.5337  0.1416
    3ALA      O   26  13.218  10.788  16.812 -0.6253  0.4631  0.1719
    4ALA      N   27  13.187  11.000  16.749 -0.4019 -0.1496 -0.2978
    4ALA      H   28  13.173  11.092  16.787  0.5535  0.2913 -0.9690
    4ALA     CA   29  13.246  10.992  16.614  0.1553  0.6189 -0.0291
    4ALA     HA   30  13.251  10.887  16.587 -1.3924  0.2549  0.9844
    4ALA     CB   31  13.159  11.063  16.514 -0.1310 -0.0531 -0.1435
    4ALA    HB1   32  13.065  11.010  16.501 -1.9972  3.4058 -2.3117
    4ALA    HB2   33  13.127  11.152  16.569 -0.4917 -1.3694  1.8768
    4ALA    HB3   34  13.205  11.089  16.418 -0.5103  2.4194  0.2696
    4ALA      C   35  13.393  11.041  16.616 -0.2605 -0.3736  0.0608
    4ALA      O   36  13.437  11.102  16.715  0.5222 -0.2399  0.0151
    5NME      N   37  13.458  11.037  16.500  0.0098 -0.4154 -0.3308
    5NME      H   38  13.402  10.999  16.425 -0.2465  0.7296 -0.7293
    5NME    CH3   39  13.588  11.090  16.472  0.2371  0.4637 -0.4244
    5NME   HH31   40  13.656  11.012  16.508 -0.6402 -0.4136 -0.6228
    5NME   HH32   41  13.589  11.109  16.365 -1.7325  0.1077 -0.5466
    5NME   HH33   42  13.618  11.181  16.524  1.2803  0.3980 -0.8753
  20.91516  20.91516  20.91516
