Protein
   42
    1ACE   HH31    1   7.725   7.769   8.619  0.4098  0.2780  1.6534
    1ACE    CH3    2   7.791   7.803   8.539 -0.9874 -0.0848  0.2885
    1ACE   HH32    3   7.729   7.852   8.465 -1.6084 -2.9086 -1.2143
    1ACE   HH33    4   7.829   7.710   8.496 -1.1713 -0.9577  1.9020
    1ACE      C    5   7.902   7.889   8.589 -0.7031 -0.6000  0.3721
    1ACE      O    6   7.924   7.907   8.706  0.0178  0.3825  0.2379
    2ALA      N    7   7.967   7.960   8.496 -0.4293  0.1148 -1.3272
    2ALA      H    8   7.932   7.957   8.401 -1.3587 -0.6550 -0.9878
    2ALA     CA    9   8.063   8.067   8.535  0.3938  0.8621  0.7099
    2ALA     HA   10   8.092   8.073   8.640 -0.9529  1.0642  1.0932
    2ALA     CB   11   8.188   8.026   8.460  0.0527 -0.2679  0.7303
    2ALA    HB1   12   8.169   8.042   8.354 -0.0039  2.0391  1.0345
    2ALA    HB2   13   8.269   8.089   8.495 -1.3010  1.1783  1.3731
    2ALA    HB3   14   8.219   7.922   8.470  2.0072  0.4040  2.3343
    2ALA      C   15   8.014   8.208   8.501  0.3870 -0.3962  0.9019
    2ALA      O   16   7.911   8.218   8.425  0.5858 -0.5328  0.1334
    3ALA      N   17   8.072   8.318   8.549 -0.2458 -0.4411  0.3142
    3ALA      H   18   8.050   8.408   8.508  1.5470  0.1071  0.4280
    3ALA     CA   19   8.174   8.331   8.656  0.3664 -0.2030  0.5807
    3ALA     HA   20   8.266   8.275   8.638 -0.1246 -1.1474  0.8897
    3ALA     CB   21   8.199   8.477   8.676 -0.4137  0.6073  0.0102
    3ALA    HB1   22   8.111   8.534   8.707  0.5518  1.8179  0.6059
    3ALA    HB2   23   8.277   8.486   8.751 -0.2597 -2.2793  0.3534
    3ALA    HB3   24   8.240   8.519   8.584 -0.1494  2.4643  0.9370
    3ALA      C   25   8.117   8.283   8.792  0.4996 -0.4763  0.6574
    3ALA      O   26   8.186   8.226   8.877  0.4618 -0.1019  0.0935
    4ALA      N   27   7.984   8.298   8.814 -0.4167 -0.7225 -0.6025
    4ALA      H   28   7.935   8.328   8.732 -0.5970 -0.1007 -0.2740
    4ALA     CA   29   7.904   8.258   8.931  0.4018 -0.8852 -0.2477
    4ALA     HA   30   7.894   8.348   8.992  0.3560 -0.8889 -0.2492
    4ALA     CB   31   7.759   8.229   8.889 -0.6586 -0.0047 -0.0634
    4ALA    HB1   32   7.697   8.227   8.978  0.4810  1.8932  0.8539
    4ALA    HB2   33   7.733   8.311   8.822 -0.3844 -1.1735 -1.6774
    4ALA    HB3   34   7.753   8.133   8.838  1.0839 -0.1665 -0.0451
    4ALA      C   35   7.959   8.150   9.019  0.5680  0.4889  0.0651
    4ALA      O   36   7.971   8.166   9.140 -0.5075  0.2605  0.5358
    5NME      N   37   8.008   8.033   8.965 -0.1670 -0.1393 -0.1772
    5NME      H   38   8.017   8.031   8.864  1.9041  0.4320 -0.0405
    5NME    CH3   39   8.055   7.924   9.047 -0.4664  0.1914  0.0803
    5NME   HH31   40   8.162   7.922   9.064 -0.9370  0.7175  4.0741
    5NME   HH32   41   8.011   7.929   9.147  1.0022 -3.2552  1.0330
    5NME   HH33   42   8.026   7.827   9.007 -0.4108 -0.9087  2.5113
  20.91516  20.91516  20.91516
