Protein
   32
    1ACE   HH31    1   4.503  10.699  10.623 -1.3288 -1.1976 -0.5280
    1ACE    CH3    2   4.559  10.683  10.716  0.0419  0.2882 -1.0505
    1ACE   HH32    3   4.502  10.608  10.771  0.4574 -1.0099 -2.3586
    1ACE   HH33    4   4.561  10.765  10.787 -1.8470 -0.8594  0.4556
    1ACE      C    5   4.701  10.644  10.702  0.4891  0.2287 -0.3868
    1ACE      O    6   4.785  10.718  10.754 -0.2759 -0.1517  0.0444
    2ALA      N    7   4.725  10.532  10.631 -0.4530  0.2614  0.1270
    2ALA      H    8   4.644  10.491  10.587  0.1690 -1.5351  0.5531
    2ALA     CA    9   4.851  10.477  10.576 -0.2672  0.3923 -0.3492
    2ALA     HA   10   4.885  10.417  10.661 -1.3864 -0.7994 -0.6851
    2ALA     CB   11   4.824  10.389  10.447  0.4957 -0.8081 -0.5115
    2ALA    HB1   12   4.785  10.446  10.363 -0.8915  0.1524  0.7276
    2ALA    HB2   13   4.914  10.335  10.415  0.0525 -0.2929 -2.7377
    2ALA    HB3   14   4.751  10.312  10.472  1.0924 -1.3990 -0.5408
    2ALA      C   15   4.958  10.586  10.547  0.4010  0.1059  0.1639
    2ALA      O   16   4.986  10.617  10.430 -0.8767  0.0209 -0.0456
    3ALA      N   17   5.026  10.641  10.647 -0.0389  0.1616 -0.1952
    3ALA      H   18   4.992  10.615  10.738 -0.5369  1.1562 -0.0847
    3ALA     CA   19   5.145  10.724  10.647  0.1746 -0.8846  0.1649
    3ALA     HA   20   5.192  10.719  10.745 -0.7510 -1.7575  0.5743
    3ALA     CB   21   5.244  10.654  10.550 -0.2219 -0.5933  0.0984
    3ALA    HB1   22   5.346  10.680  10.574 -0.0913 -2.3631  1.6523
    3ALA    HB2   23   5.239  10.545  10.549 -0.4112 -0.5914 -0.9699
    3ALA    HB3   24   5.232  10.693  10.449  0.5079  2.6413  1.1484
    3ALA      C   25   5.116  10.873  10.627 -0.0583  0.2832 -0.4217
    3ALA      O   26   5.204  10.951  10.582  0.2634  0.4528 -0.4350
    4NME      N   27   4.999  10.916  10.677  0.0692  0.3402 -0.3095
    4NME      H   28   4.932  10.845  10.703  0.2983 -0.3251 -1.4826
    4NME    CH3   29   4.947  11.045  10.644 -0.0211  0.2503 -0.0162
    4NME   HH31   30   4.839  11.037  10.656 -0.0001 -2.4574 -0.9937
    4NME   HH32   31   5.000  11.119  10.705  1.3025 -2.0662  1.8532
    4NME   HH33   32   4.975  11.073  10.543  1.4216 -1.5522 -0.1730
  20.99041  20.99041  20.99041
