Protein
   32
    1ACE   HH31    1   6.610  11.176  12.197 -0.9250 -0.5874 -0.6694
    1ACE    CH3    2   6.625  11.259  12.127  0.0426  0.4296  0.7090
    1ACE   HH32    3   6.613  11.356  12.175 -4.1261  0.5406 -0.2750
    1ACE   HH33    4   6.555  11.252  12.044 -0.2218 -1.6227  1.0435
    1ACE      C    5   6.765  11.243  12.069  0.1677  0.2942 -0.5829
    1ACE      O    6   6.784  11.230  11.950  0.1503  0.0420 -0.3944
    2ALA      N    7   6.864  11.243  12.159  0.7000 -0.4595  0.0099
    2ALA      H    8   6.829  11.247  12.253 -3.0266  1.6819 -1.2471
    2ALA     CA    9   7.002  11.237  12.119 -0.5023 -0.5895 -0.1083
    2ALA     HA   10   7.016  11.280  12.020 -1.1086 -0.0307  0.0458
    2ALA     CB   11   7.078  11.324  12.220  0.2071 -0.0128  0.1356
    2ALA    HB1   12   7.080  11.276  12.318 -0.5496 -1.2448 -0.4162
    2ALA    HB2   13   7.178  11.338  12.180  0.3493  0.1470  0.5439
    2ALA    HB3   14   7.029  11.420  12.233 -1.3933 -0.9948  2.0722
    2ALA      C   15   7.060  11.093  12.107  0.5876 -0.0982  0.2784
    2ALA      O   16   7.171  11.079  12.056  0.2349 -0.1055 -0.6339
    3ALA      N   17   6.985  10.986  12.135 -0.0777  0.2393 -0.2557
    3ALA      H   18   6.897  11.003  12.182 -0.6450 -0.7762 -0.9053
    3ALA     CA   19   7.035  10.850  12.151  0.1091 -0.3910 -0.1225
    3ALA     HA   20   7.143  10.854  12.140  0.1506 -1.5055 -0.2700
    3ALA     CB   21   7.011  10.817  12.300 -0.3991  0.1647 -0.7811
    3ALA    HB1   22   7.080  10.875  12.361  1.1784 -0.7295 -1.6544
    3ALA    HB2   23   6.908  10.821  12.335 -0.7231 -1.3873 -1.4158
    3ALA    HB3   24   7.029  10.711  12.319  1.9582  0.7249  0.5740
    3ALA      C   25   6.982  10.749  12.046  0.3986 -0.3772  0.8031
    3ALA      O   26   6.915  10.645  12.072  0.3933  0.0412 -0.2135
    4NME      N   27   6.984  10.792  11.916  0.0729  0.2728  0.6206
    4NME      H   28   7.026  10.882  11.899 -0.9709  0.3796 -1.8793
    4NME    CH3   29   6.929  10.714  11.802  0.0883  0.2197 -0.0229
    4NME   HH31   30   6.996  10.642  11.756 -0.4944 -0.7942  0.6730
    4NME   HH32   31   6.854  10.645  11.840 -0.9651  1.9064  1.1608
    4NME   HH33   32   6.890  10.778  11.722  0.6907  2.4428  1.3603
  20.99041  20.99041  20.99041
