Protein
   42
    1ACE   HH31    1   7.961  11.544  14.611  0.3972  0.1393  0.5600
    1ACE    CH3    2   8.057  11.589  14.583  0.1926  0.1157 -0.1938
    1ACE   HH32    3   8.132  11.544  14.648  0.8752  1.4013 -0.0702
    1ACE   HH33    4   8.056  11.697  14.599 -1.9428 -0.0382  1.2993
    1ACE      C    5   8.092  11.560  14.438  0.0163  0.2468 -0.5454
    1ACE      O    6   8.077  11.643  14.351 -0.3090  0.2807 -0.1313
    2ALA      N    7   8.156  11.449  14.410 -0.4022  0.0003 -0.0123
    2ALA      H    8   8.174  11.382  14.484 -1.7228 -1.0436 -0.6004
    2ALA     CA    9   8.208  11.390  14.290  0.2662 -0.8182  0.1246
    2ALA     HA   10   8.180  11.460  14.211 -0.0304 -2.2482 -1.0927
    2ALA     CB   11   8.355  11.373  14.284  0.5264 -0.2528  0.2883
    2ALA    HB1   12   8.397  11.313  14.365  2.6265 -0.8966 -1.1818
    2ALA    HB2   13   8.382  11.320  14.193 -0.9275 -1.6960  0.6595
    2ALA    HB3   14   8.411  11.467  14.293  0.0045  0.0916 -0.0360
    2ALA      C   15   8.120  11.267  14.254 -0.2463 -0.3840  0.6255
    2ALA      O   16   8.084  11.194  14.345  0.0409 -0.2212  0.7862
    3ALA      N   17   8.073  11.240  14.128 -0.5699  0.1422  0.5243
    3ALA      H   18   8.019  11.154  14.124 -1.5178  0.7835 -1.6027
    3ALA     CA   19   8.129  11.287  14.004  0.1937  0.4801  0.7813
    3ALA     HA   20   8.237  11.296  14.016  0.4557 -0.8307 -0.3975
    3ALA     CB   21   8.103  11.197  13.878 -0.3450 -0.0263  0.0158
    3ALA    HB1   22   8.175  11.214  13.798  0.5390  1.5268  1.0855
    3ALA    HB2   23   8.122  11.095  13.911 -1.8905 -0.0456  0.9392
    3ALA    HB3   24   8.005  11.205  13.831 -0.0148 -3.3795 -1.5441
    3ALA      C   25   8.085  11.434  13.973 -0.1458  0.2820 -0.7452
    3ALA      O   26   8.156  11.512  13.907  0.1796 -0.3704 -0.1780
    4ALA      N   27   7.982  11.480  14.046  0.2147  0.1243  0.0001
    4ALA      H   28   7.936  11.410  14.103  1.9068  0.4055  1.8258
    4ALA     CA   29   7.916  11.613  14.048 -0.4625 -0.4979 -0.0861
    4ALA     HA   30   7.990  11.673  14.101 -0.6213 -0.9134  0.6168
    4ALA     CB   31   7.893  11.665  13.905  0.7427  0.3952 -0.3874
    4ALA    HB1   32   7.824  11.594  13.860 -0.9230  2.2049 -0.7440
    4ALA    HB2   33   7.844  11.762  13.901 -2.3911 -1.0859 -3.6721
    4ALA    HB3   34   7.987  11.667  13.849  0.7805  0.2978 -0.3325
    4ALA      C   35   7.781  11.609  14.123 -0.4909  0.1525 -0.6776
    4ALA      O   36   7.706  11.513  14.113 -0.3422  0.4149 -0.2961
    5NME      N   37   7.764  11.712  14.209  0.5263 -0.7283  0.2965
    5NME      H   38   7.836  11.780  14.225  1.0639 -1.5130  1.3831
    5NME    CH3   39   7.635  11.747  14.265  1.2829  0.2663 -0.6166
    5NME   HH31   40   7.583  11.813  14.196  1.3477  1.8131  0.7572
    5NME   HH32   41   7.583  11.651  14.272  2.3407 -0.2125  1.7670
    5NME   HH33   42   7.626  11.789  14.365 -2.0161 -2.7681  0.5795
  20.91516  20.91516  20.91516
