Protein
   42
    1ACE   HH31    1   6.045   6.447  11.681  1.0646  1.1626  0.8458
    1ACE    CH3    2   6.124   6.395  11.627 -0.6551 -0.5513 -0.1373
    1ACE   HH32    3   6.201   6.373  11.701 -0.7244 -1.5101 -0.3268
    1ACE   HH33    4   6.166   6.469  11.559 -0.9091 -0.3602 -0.0894
    1ACE      C    5   6.063   6.277  11.565  0.1859  0.6701  0.2980
    1ACE      O    6   6.110   6.165  11.593  0.0544 -0.7173 -0.3009
    2ALA      N    7   5.953   6.294  11.491  0.7404 -0.2182 -1.1585
    2ALA      H    8   5.918   6.386  11.470  0.6025  0.5796  1.9660
    2ALA     CA    9   5.892   6.185  11.412 -0.6904 -0.2831 -0.1276
    2ALA     HA   10   5.913   6.085  11.452  0.0049 -1.0036 -2.1720
    2ALA     CB   11   5.743   6.199  11.430 -0.1402 -0.3010 -0.0817
    2ALA    HB1   12   5.691   6.118  11.378 -1.1209 -0.2249  0.7620
    2ALA    HB2   13   5.717   6.183  11.535  1.8132  2.2994  0.8911
    2ALA    HB3   14   5.701   6.298  11.415 -1.7632 -0.8285  0.7341
    2ALA      C   15   5.933   6.196  11.261  0.1624  0.4128  0.6135
    2ALA      O   16   5.865   6.260  11.190 -0.7221  0.1278 -0.2383
    3ALA      N   17   6.036   6.123  11.220 -0.6753  0.3024 -0.2777
    3ALA      H   18   6.069   6.135  11.126 -2.5120  0.6409 -0.9318
    3ALA     CA   19   6.131   6.041  11.302 -0.4782 -0.1210 -0.1842
    3ALA     HA   20   6.110   6.025  11.407  0.6619 -3.5096 -0.3238
    3ALA     CB   21   6.130   5.897  11.258  0.2882 -0.0242  0.8088
    3ALA    HB1   22   6.030   5.852  11.265  0.5951 -1.1348 -1.0686
    3ALA    HB2   23   6.161   5.891  11.153 -1.3242  2.0217  0.1400
    3ALA    HB3   24   6.198   5.832  11.312 -1.2515 -1.4210  1.1618
    3ALA      C   25   6.274   6.094  11.293 -0.1371  0.1207  0.3546
    3ALA      O   26   6.311   6.140  11.181 -0.6001  0.0441 -0.4808
    4ALA      N   27   6.355   6.074  11.395 -0.1768  0.4014 -0.2752
    4ALA      H   28   6.310   6.041  11.479 -0.0416  1.3057  0.1681
    4ALA     CA   29   6.501   6.070  11.395  0.2591 -0.2471 -0.1434
    4ALA     HA   30   6.545   6.124  11.310 -1.0853  0.0000 -0.7194
    4ALA     CB   31   6.551   6.137  11.529 -0.1081  0.3569 -0.4732
    4ALA    HB1   32   6.498   6.231  11.537  0.8955  0.7617  1.8627
    4ALA    HB2   33   6.525   6.069  11.611 -0.5383 -1.5778 -2.1244
    4ALA    HB3   34   6.659   6.148  11.522  0.4186 -2.5252  0.9758
    4ALA      C   35   6.543   5.924  11.383 -0.4263  0.7916  0.0866
    4ALA      O   36   6.474   5.833  11.432 -0.0610  0.0416  0.2500
    5NME      N   37   6.656   5.895  11.323  0.2778  0.2639  0.3321
    5NME      H   38   6.700   5.973  11.277 -2.2918  0.9512 -1.1671
    5NME    CH3   39   6.732   5.772  11.335 -0.7765 -0.6610 -0.4534
    5NME   HH31   40   6.709   5.727  11.431  0.4744 -0.7307 -0.1734
    5NME   HH32   41   6.701   5.694  11.266 -0.4736 -1.0707 -0.1274
    5NME   HH33   42   6.838   5.797  11.331 -1.2011  1.8735  1.9559
  20.91516  20.91516  20.91516
