Protein
   42
    1ACE   HH31    1  14.539   8.327   6.543 -0.9477 -0.5917  1.6171
    1ACE    CH3    2  14.561   8.424   6.587  0.1481 -0.0222 -0.1005
    1ACE   HH32    3  14.470   8.475   6.620  0.7437  1.6851 -0.9827
    1ACE   HH33    4  14.613   8.489   6.517  3.4867 -1.8993  0.4070
    1ACE      C    5  14.650   8.400   6.703  0.0356  0.1098 -0.1657
    1ACE      O    6  14.680   8.284   6.722  0.3504  0.1247  0.2340
    2ALA      N    7  14.698   8.513   6.766  0.2040 -0.7314 -0.1451
    2ALA      H    8  14.681   8.602   6.721  0.6012 -1.7315 -2.4071
    2ALA     CA    9  14.759   8.525   6.898  0.4760 -0.3660 -0.6656
    2ALA     HA   10  14.864   8.549   6.882 -0.2943  2.3695 -2.2718
    2ALA     CB   11  14.704   8.644   6.974 -0.2358  0.0784 -0.4392
    2ALA    HB1   12  14.759   8.651   7.068  2.0786 -0.4715 -1.6733
    2ALA    HB2   13  14.720   8.735   6.915 -1.8659 -0.6828 -2.1339
    2ALA    HB3   14  14.601   8.623   7.003  0.3531  0.0800  1.8783
    2ALA      C   15  14.758   8.399   6.987  0.2047 -0.2603  0.0721
    2ALA      O   16  14.686   8.382   7.089  0.5924 -0.6257  0.5902
    3ALA      N   17  14.829   8.291   6.960  0.1048 -0.2049  0.4112
    3ALA      H   18  14.823   8.213   7.025 -1.8638  0.1048  0.6714
    3ALA     CA   19  14.942   8.304   6.861  0.9334 -0.4650 -0.4770
    3ALA     HA   20  14.931   8.380   6.784  2.1871  0.2490  0.0240
    3ALA     CB   21  15.061   8.350   6.954 -0.3567 -0.1852 -0.0303
    3ALA    HB1   22  15.048   8.448   6.999  2.6383  0.4526 -0.3723
    3ALA    HB2   23  15.078   8.263   7.017  0.7631 -0.3597 -0.5556
    3ALA    HB3   24  15.151   8.372   6.897 -0.2931 -0.5004 -0.0537
    3ALA      C   25  14.986   8.160   6.809 -0.0759 -0.2209 -0.9614
    3ALA      O   26  15.104   8.127   6.798  0.6356 -0.5292  0.3567
    4ALA      N   27  14.880   8.077   6.787  0.3568  0.3883 -1.3136
    4ALA      H   28  14.790   8.123   6.792  0.3539  0.2205  2.4075
    4ALA     CA   29  14.876   7.927   6.772  0.5432  0.2081 -0.1472
    4ALA     HA   30  14.818   7.888   6.856  0.4667 -0.7959 -0.6603
    4ALA     CB   31  14.797   7.899   6.637 -0.8391 -0.1682  0.0638
    4ALA    HB1   32  14.767   7.794   6.629  0.8604 -0.6015 -1.3573
    4ALA    HB2   33  14.714   7.967   6.620  0.5906  1.7534  0.5144
    4ALA    HB3   34  14.867   7.926   6.559 -1.1372  0.5482  0.0390
    4ALA      C   35  15.003   7.838   6.763 -0.3119 -0.5505 -0.1180
    4ALA      O   36  15.004   7.740   6.834 -0.0425 -0.1229  0.6155
    5NME      N   37  15.105   7.860   6.677 -0.2544 -0.1089 -0.2559
    5NME      H   38  15.093   7.947   6.627  1.8446  1.8975  2.4728
    5NME    CH3   39  15.242   7.804   6.682 -0.7117  0.5207 -0.1019
    5NME   HH31   40  15.286   7.798   6.582 -0.7220 -0.1397 -0.0752
    5NME   HH32   41  15.306   7.860   6.750  0.0434  0.4168 -0.7125
    5NME   HH33   42  15.245   7.699   6.714  1.2337  0.8061  0.8005
  20.91516  20.91516  20.91516
