Protein
   32
    1ACE   HH31    1  11.001  12.841   7.470 -0.1915  0.4732  1.4336
    1ACE    CH3    2  10.960  12.751   7.515  0.0821 -0.3011  0.1852
    1ACE   HH32    3  11.000  12.740   7.616 -2.4684  0.4493  1.3574
    1ACE   HH33    4  10.979  12.659   7.460  0.6553  0.2931 -0.6353
    1ACE      C    5  10.808  12.760   7.536  0.2820 -0.6411 -0.2760
    1ACE      O    6  10.729  12.696   7.466 -0.2553  0.0794 -0.1352
    2ALA      N    7  10.765  12.837   7.638 -0.1633 -0.0687 -0.3669
    2ALA      H    8  10.833  12.900   7.679  0.4341 -0.8281 -0.1785
    2ALA     CA    9  10.631  12.846   7.691  0.7237  0.2879  0.0235
    2ALA     HA   10  10.589  12.747   7.677 -0.0973  0.7759 -1.2136
    2ALA     CB   11  10.635  12.866   7.840 -0.3456  0.0849 -0.4371
    2ALA    HB1   12  10.702  12.792   7.885 -0.9598 -1.4579 -1.9616
    2ALA    HB2   13  10.668  12.967   7.860 -3.2334  1.1216 -0.4151
    2ALA    HB3   14  10.533  12.853   7.876 -0.4461 -1.9914 -1.3284
    2ALA      C   15  10.522  12.934   7.625  0.4952 -0.2338 -0.2172
    2ALA      O   16  10.429  12.976   7.691 -0.5260  0.0707  0.2856
    3ALA      N   17  10.536  12.954   7.494  0.0571 -0.5889  0.3865
    3ALA      H   18  10.618  12.915   7.451 -0.6710 -0.6541 -0.9742
    3ALA     CA   19  10.444  13.018   7.400  0.5772 -0.1445  0.2785
    3ALA     HA   20  10.346  12.972   7.397 -1.1291  3.2180 -2.2580
    3ALA     CB   21  10.437  13.171   7.434 -0.0119  0.4180 -0.0881
    3ALA    HB1   22  10.532  13.216   7.404  0.7306 -0.6345  0.6076
    3ALA    HB2   23  10.365  13.226   7.373 -0.2279  0.0727 -0.1442
    3ALA    HB3   24  10.416  13.184   7.540  0.1343 -0.7428  0.0972
    3ALA      C   25  10.505  13.008   7.255 -0.5505  0.4874  0.1508
    3ALA      O   26  10.626  13.020   7.229  0.1138 -0.7861  0.2670
    4NME      N   27  10.412  12.983   7.157 -0.2130  0.6703 -0.4223
    4NME      H   28  10.317  12.964   7.185 -0.7950  1.4892 -1.7249
    4NME    CH3   29  10.435  12.982   7.015  0.1107  0.0929 -0.0453
    4NME   HH31   30  10.532  12.944   6.983  0.3008  0.6535 -0.1580
    4NME   HH32   31  10.360  12.915   6.972 -0.0373  0.3466 -0.1899
    4NME   HH33   32  10.422  13.082   6.975 -0.9912  0.2774  0.7425
  20.99041  20.99041  20.99041
