Protein
   32
    1ACE   HH31    1   7.965  17.393  14.407  1.1638 -0.6352 -1.6490
    1ACE    CH3    2   7.869  17.408  14.356  0.3238 -0.2483 -0.0345
    1ACE   HH32    3   7.879  17.442  14.253  0.6337 -0.4968 -0.0919
    1ACE   HH33    4   7.798  17.472  14.407 -0.7461 -0.6856 -0.9316
    1ACE      C    5   7.816  17.268  14.339  0.4189  0.0061 -0.5473
    1ACE      O    6   7.739  17.217  14.425  0.0182 -0.3927  0.2682
    2ALA      N    7   7.845  17.204  14.231 -0.2401 -0.0217  0.3551
    2ALA      H    8   7.903  17.257  14.167 -0.2912 -0.6098 -0.1928
    2ALA     CA    9   7.776  17.083  14.180 -0.4778 -0.4175 -0.1246
    2ALA     HA   10   7.687  17.067  14.241  1.1639  1.1377  2.9153
    2ALA     CB   11   7.713  17.106  14.043  0.6587  0.5415  0.1019
    2ALA    HB1   12   7.651  17.196  14.035  1.1254  0.9969  1.3871
    2ALA    HB2   13   7.790  17.117  13.966  0.2173  1.7420 -0.1804
    2ALA    HB3   14   7.660  17.016  14.014  0.7411 -0.2129  2.1774
    2ALA      C   15   7.871  16.951  14.185  0.4902 -0.4786  0.2358
    2ALA      O   16   7.949  16.918  14.095 -0.2878 -0.0701 -0.1690
    3ALA      N   17   7.857  16.875  14.298  0.0259 -0.2264  0.0253
    3ALA      H   18   7.794  16.918  14.363  1.4646 -1.0832  2.0835
    3ALA     CA   19   7.899  16.738  14.336 -0.0532 -0.0238  0.7589
    3ALA     HA   20   7.844  16.710  14.427  0.6393  0.0799  1.2181
    3ALA     CB   21   7.855  16.649  14.228 -0.5536  0.6062  0.1921
    3ALA    HB1   22   7.852  16.551  14.274  0.6514  1.7552  2.9148
    3ALA    HB2   23   7.756  16.666  14.187 -1.0039 -2.6822 -0.3527
    3ALA    HB3   24   7.933  16.639  14.152 -1.4169 -0.2635 -0.6107
    3ALA      C   25   8.047  16.727  14.373  0.5851 -0.1357  0.8429
    3ALA      O   26   8.074  16.693  14.483 -0.2528 -0.1395 -0.2480
    4NME      N   27   8.140  16.760  14.280  0.0905 -0.2548 -0.3173
    4NME      H   28   8.105  16.809  14.198 -0.1414  1.6319  0.8375
    4NME    CH3   29   8.281  16.735  14.309  0.5366 -0.9492 -0.3855
    4NME   HH31   30   8.325  16.803  14.383  1.1143 -1.3867 -0.3228
    4NME   HH32   31   8.295  16.634  14.348  0.8060 -0.7602  0.0150
    4NME   HH33   32   8.332  16.732  14.213  0.4795 -2.5635 -0.3720
  20.99041  20.99041  20.99041
