Protein
   32
    1ACE   HH31    1   9.823  13.682  14.073  0.9646 -2.7799 -1.0981
    1ACE    CH3    2   9.870  13.741  13.994  0.0092  0.2175  0.4461
    1ACE   HH32    3   9.848  13.847  14.000 -0.1100  0.2718 -0.6633
    1ACE   HH33    4   9.828  13.696  13.904  1.0976 -0.1545  0.1032
    1ACE      C    5  10.014  13.727  14.005  0.1330  0.0288  0.2166
    1ACE      O    6  10.075  13.695  14.104  0.2149 -0.1107  0.3290
    2ALA      N    7  10.072  13.766  13.889 -0.3644 -0.2996 -0.4254
    2ALA      H    8  10.007  13.784  13.814 -0.1159 -1.6487 -0.9944
    2ALA     CA    9  10.210  13.745  13.850  0.3389 -1.1283  0.3389
    2ALA     HA   10  10.247  13.648  13.882  1.4787 -0.2121  1.8822
    2ALA     CB   11  10.203  13.742  13.692 -0.6713 -0.6494 -0.1208
    2ALA    HB1   12  10.153  13.830  13.652 -1.1188 -1.0759 -0.5126
    2ALA    HB2   13  10.308  13.738  13.663  0.0529 -2.1708  2.4843
    2ALA    HB3   14  10.147  13.657  13.655 -2.6181  1.2438 -1.8399
    2ALA      C   15  10.296  13.864  13.896 -1.2722  0.0571 -0.1368
    2ALA      O   16  10.418  13.850  13.908 -0.0734  0.0971  0.0216
    3ALA      N   17  10.238  13.981  13.916  0.3496 -1.1442 -0.5178
    3ALA      H   18  10.140  13.996  13.901  0.8416  0.2742 -2.8598
    3ALA     CA   19  10.302  14.097  13.980 -0.5266 -0.5143  0.6758
    3ALA     HA   20  10.410  14.089  13.989 -0.1400  1.8395 -0.9246
    3ALA     CB   21  10.282  14.215  13.881 -0.2439 -0.6673 -0.9902
    3ALA    HB1   22  10.324  14.307  13.921 -0.6848 -0.5867 -0.6890
    3ALA    HB2   23  10.346  14.198  13.794 -0.4266 -0.9260 -1.0753
    3ALA    HB3   24  10.176  14.231  13.859 -0.1092  0.6585 -0.7953
    3ALA      C   25  10.241  14.133  14.118  0.5788 -0.8579 -0.8733
    3ALA      O   26  10.273  14.232  14.185  0.4551  0.0642  0.1314
    4NME      N   27  10.160  14.040  14.177  0.1437  0.3867  0.0691
    4NME      H   28  10.151  13.950  14.133  1.0451 -0.3683  1.3595
    4NME    CH3   29  10.086  14.055  14.300  0.0423  0.3955  0.2899
    4NME   HH31   30   9.980  14.039  14.280 -0.1802 -0.2913  1.8720
    4NME   HH32   31  10.118  13.976  14.368 -1.3550 -1.0729 -0.6775
    4NME   HH33   32  10.102  14.157  14.334 -0.1066  1.2100 -1.9124
  20.99041  20.99041  20.99041
