Protein
   42
    1ACE   HH31    1  20.296   5.589  12.678  0.7669  2.6405  0.0818
    1ACE    CH3    2  20.328   5.569  12.575 -0.2326  0.1326  0.1712
    1ACE   HH32    3  20.252   5.508  12.527 -0.8738  1.9556 -1.2460
    1ACE   HH33    4  20.425   5.520  12.576  0.0075  0.5549 -1.0045
    1ACE      C    5  20.339   5.696  12.498  0.3884 -0.0774  0.7592
    1ACE      O    6  20.294   5.803  12.531 -0.7763  0.4808 -0.1484
    2ALA      N    7  20.410   5.675  12.391  0.3056  0.2691  0.2812
    2ALA      H    8  20.439   5.579  12.381 -0.0775  0.1620  0.1810
    2ALA     CA    9  20.490   5.775  12.315  0.2990  0.3012  0.1119
    2ALA     HA   10  20.501   5.869  12.369  0.3723 -0.7680  2.0483
    2ALA     CB   11  20.627   5.725  12.301 -0.0035  0.2807 -0.9931
    2ALA    HB1   12  20.625   5.632  12.246  1.0453 -0.6991  0.5671
    2ALA    HB2   13  20.665   5.796  12.228 -0.8767  1.5593 -0.2551
    2ALA    HB3   14  20.687   5.735  12.392 -0.4305  1.7180 -0.8373
    2ALA      C   15  20.421   5.793  12.177  0.3473  0.2606  0.4239
    2ALA      O   16  20.438   5.713  12.084  0.1183 -0.6020 -0.3335
    3ALA      N   17  20.327   5.889  12.166 -0.1240 -0.8234 -0.6558
    3ALA      H   18  20.264   5.882  12.086 -1.9178 -1.3180  0.7321
    3ALA     CA   19  20.272   5.987  12.264 -0.8893 -0.1850 -0.2960
    3ALA     HA   20  20.325   5.984  12.359 -0.7681  0.9690 -0.3162
    3ALA     CB   21  20.298   6.128  12.214  0.2832 -0.6388  0.1516
    3ALA    HB1   22  20.295   6.200  12.296  1.8315 -1.6158  1.1144
    3ALA    HB2   23  20.397   6.125  12.169  0.6909 -0.0396  0.9875
    3ALA    HB3   24  20.226   6.158  12.137 -1.8952  0.0271  2.3235
    3ALA      C   25  20.127   5.952  12.279 -0.2704 -0.2757  0.1219
    3ALA      O   26  20.058   5.961  12.177 -0.3509  0.4461 -0.0423
    4ALA      N   27  20.078   5.892  12.389  0.3788  0.4068  0.7486
    4ALA      H   28  20.143   5.877  12.465  0.4565 -1.1522  0.4139
    4ALA     CA   29  19.966   5.803  12.394  0.3811  0.3922 -0.3339
    4ALA     HA   30  19.943   5.769  12.294 -0.4403  0.6670 -0.2500
    4ALA     CB   31  20.011   5.681  12.481 -0.0890 -0.7481  0.1821
    4ALA    HB1   32  19.925   5.616  12.502 -0.7838 -0.2016 -0.8815
    4ALA    HB2   33  20.089   5.634  12.422 -0.2089 -0.2718 -0.3556
    4ALA    HB3   34  20.046   5.710  12.580 -0.2222  0.3978 -0.0927
    4ALA      C   35  19.842   5.870  12.451 -0.1635  0.2739  0.7514
    4ALA      O   36  19.756   5.803  12.503  0.1334  0.5585 -0.1472
    5NME      N   37  19.831   5.999  12.421 -0.0101  0.0306  0.2179
    5NME      H   38  19.909   6.044  12.375  0.2466  0.4536  1.0397
    5NME    CH3   39  19.718   6.080  12.466 -0.2786  0.6044  0.2858
    5NME   HH31   40  19.661   6.013  12.531  0.8807 -0.5618  0.1107
    5NME   HH32   41  19.744   6.178  12.506 -0.0416  0.7489 -0.2158
    5NME   HH33   42  19.646   6.098  12.385 -1.5233 -0.7553  1.0434
  20.91516  20.91516  20.91516
