Protein
   42
    1ACE   HH31    1  11.180   7.015  11.671 -0.5652  1.8800  1.3324
    1ACE    CH3    2  11.073   7.035  11.659 -0.7813 -0.1028 -0.2667
    1ACE   HH32    3  11.048   7.084  11.565 -1.2669 -0.2056 -0.1938
    1ACE   HH33    4  11.043   7.102  11.739 -1.7285 -0.4923 -0.2823
    1ACE      C    5  10.992   6.908  11.667 -0.0191 -0.3424  0.6741
    1ACE      O    6  11.044   6.799  11.639 -0.9205 -0.4794 -0.2483
    2ALA      N    7  10.855   6.927  11.671 -0.1476 -0.5044 -0.3859
    2ALA      H    8  10.812   7.013  11.700 -0.1590 -0.6600  0.0755
    2ALA     CA    9  10.750   6.827  11.675  0.2176 -1.0753 -0.4149
    2ALA     HA   10  10.785   6.752  11.746  3.2687  1.4024  0.9028
    2ALA     CB   11  10.614   6.899  11.721 -0.0795 -0.6139  0.1797
    2ALA    HB1   12  10.614   6.998  11.676  0.2356 -0.5196  0.3762
    2ALA    HB2   13  10.524   6.841  11.705 -2.3412  2.6755  0.0023
    2ALA    HB3   14  10.611   6.914  11.829 -1.4934 -0.0981  0.0804
    2ALA      C   15  10.732   6.751  11.545 -0.1977 -0.3562 -0.9874
    2ALA      O   16  10.637   6.673  11.531  0.7108 -0.2910 -0.5291
    3ALA      N   17  10.826   6.767  11.453  0.5763 -0.4950  0.1562
    3ALA      H   18  10.903   6.828  11.476  0.9228  0.2306 -2.6031
    3ALA     CA   19  10.837   6.685  11.336  0.3072  0.1059 -0.4264
    3ALA     HA   20  10.741   6.638  11.314 -0.9728  1.5088  1.7473
    3ALA     CB   21  10.882   6.782  11.226  0.2376 -0.1382  0.1046
    3ALA    HB1   22  10.806   6.852  11.192  2.5412  0.8228 -3.5718
    3ALA    HB2   23  10.967   6.843  11.259 -0.3599  0.7788 -0.0141
    3ALA    HB3   24  10.916   6.723  11.141  0.8118  0.2204  0.0738
    3ALA      C   25  10.931   6.558  11.355  0.2113 -0.4625 -0.5000
    3ALA      O   26  10.942   6.476  11.264 -0.1703 -0.4780 -0.0279
    4ALA      N   27  11.005   6.552  11.469  0.7853  0.0931 -0.1014
    4ALA      H   28  10.987   6.622  11.539 -1.1168 -0.6667  0.2217
    4ALA     CA   29  11.085   6.444  11.522  0.0621  0.9463  0.5520
    4ALA     HA   30  11.109   6.481  11.621  0.7273  2.3083 -0.0918
    4ALA     CB   31  11.010   6.315  11.550  0.2752  0.5965 -0.1763
    4ALA    HB1   32  11.082   6.233  11.547 -1.8800 -1.4615  1.1304
    4ALA    HB2   33  10.950   6.312  11.641  0.9494  0.0754  0.2733
    4ALA    HB3   34  10.942   6.285  11.471  1.2930  1.0854 -1.2831
    4ALA      C   35  11.222   6.418  11.442  0.3863  0.0320 -0.4088
    4ALA      O   36  11.310   6.363  11.512  0.2663  0.3901 -0.3267
    5NME      N   37  11.237   6.450  11.315 -0.6232 -0.9064 -0.1184
    5NME      H   38  11.160   6.460  11.250 -0.3864 -0.8521 -0.3902
    5NME    CH3   39  11.369   6.445  11.251 -0.1468 -0.0855  0.2843
    5NME   HH31   40  11.441   6.486  11.322 -0.5623  0.3490  0.4622
    5NME   HH32   41  11.391   6.341  11.229 -1.6970 -0.2210 -0.8544
    5NME   HH33   42  11.375   6.497  11.155  2.0499  0.7688  0.8099
  20.91516  20.91516  20.91516
