Protein
   32
    1ACE   HH31    1   9.356  11.447  13.977 -1.2057  0.3920 -0.8118
    1ACE    CH3    2   9.389  11.546  14.010 -0.4102 -0.2177  0.2476
    1ACE   HH32    3   9.416  11.539  14.116 -0.7402 -0.2575  0.3298
    1ACE   HH33    4   9.313  11.623  14.008 -0.4627  0.0154  3.7500
    1ACE      C    5   9.508  11.594  13.923 -0.0429  0.0837 -0.4532
    1ACE      O    6   9.510  11.709  13.884  0.0692  0.7946 -0.6692
    2ALA      N    7   9.609  11.507  13.896 -0.3432  0.4980  0.0504
    2ALA      H    8   9.595  11.411  13.925  0.0564 -0.1542 -1.7612
    2ALA     CA    9   9.724  11.528  13.810 -0.2141 -0.0598 -0.7357
    2ALA     HA   10   9.727  11.636  13.793  1.9987 -0.3748 -2.8748
    2ALA     CB   11   9.855  11.487  13.880  0.0144 -0.0325 -0.1150
    2ALA    HB1   12   9.934  11.531  13.820  0.0585 -0.4129 -0.3401
    2ALA    HB2   13   9.852  11.521  13.984  1.8724 -0.0684 -0.0257
    2ALA    HB3   14   9.863  11.378  13.881  0.6532  0.0059  0.1257
    2ALA      C   15   9.713  11.454  13.680 -0.2218  0.0733  0.8653
    2ALA      O   16   9.644  11.353  13.671 -0.8038 -0.3422 -0.3593
    3ALA      N   17   9.785  11.511  13.578  0.8763 -0.5314 -0.4854
    3ALA      H   18   9.834  11.597  13.596  0.1313  0.1133 -1.4431
    3ALA     CA   19   9.806  11.451  13.446  0.9398  0.4636 -0.7856
    3ALA     HA   20   9.855  11.532  13.391  1.3955  0.9303  0.2881
    3ALA     CB   21   9.904  11.333  13.442  0.0118  0.5032  0.6272
    3ALA    HB1   22   9.876  11.253  13.510 -0.9874  1.5310  1.4558
    3ALA    HB2   23   9.914  11.293  13.341 -2.2318  0.3324  0.4195
    3ALA    HB3   24  10.004  11.370  13.463  1.1594 -2.3947  0.7484
    3ALA      C   25   9.678  11.428  13.360 -0.1915 -0.7268 -0.5171
    3ALA      O   26   9.692  11.424  13.238 -0.1662 -0.0884  0.4722
    4NME      N   27   9.555  11.437  13.416  0.6444 -0.5948  0.0514
    4NME      H   28   9.543  11.452  13.515 -1.7773 -0.3809 -0.1886
    4NME    CH3   29   9.433  11.426  13.333  0.0423  0.5105  0.3841
    4NME   HH31   30   9.443  11.372  13.239 -0.3708 -1.9137  1.6482
    4NME   HH32   31   9.360  11.354  13.371 -0.7047 -0.7508 -3.1047
    4NME   HH33   32   9.388  11.525  13.326  0.9217  0.8350 -0.7563
  20.99041  20.99041  20.99041
