Protein
   42
    1ACE   HH31    1  10.290   9.797   9.238  1.2140  0.7879  0.0652
    1ACE    CH3    2  10.340   9.702   9.258 -0.1310  0.0044 -0.1821
    1ACE   HH32    3  10.438   9.730   9.298 -0.1985 -0.4401  0.3173
    1ACE   HH33    4  10.354   9.632   9.176 -0.0533 -2.5681  1.8983
    1ACE      C    5  10.261   9.634   9.368  0.9093 -0.0803 -0.4907
    1ACE      O    6  10.152   9.671   9.407  0.4552 -0.0417 -0.7782
    2ALA      N    7  10.324   9.534   9.421  0.2318 -0.4060 -0.2342
    2ALA      H    8  10.419   9.510   9.395  0.9560 -0.0590  1.8935
    2ALA     CA    9  10.279   9.454   9.535 -0.3534 -0.8165 -0.0272
    2ALA     HA   10  10.228   9.514   9.610  0.6466  0.0902 -0.0483
    2ALA     CB   11  10.182   9.352   9.477  0.2745 -0.2519  0.0966
    2ALA    HB1   12  10.154   9.283   9.557  0.9738  0.1459  0.7049
    2ALA    HB2   13  10.091   9.403   9.447  0.7286  0.4984 -0.0477
    2ALA    HB3   14  10.218   9.297   9.390 -0.9173  1.2966 -1.4457
    2ALA      C   15  10.402   9.385   9.604 -0.7565  0.1949 -0.1413
    2ALA      O   16  10.511   9.376   9.546  1.2075 -0.0686  0.5608
    3ALA      N   17  10.387   9.330   9.726 -0.0643 -0.2572 -0.5871
    3ALA      H   18  10.469   9.313   9.782 -0.0439 -1.5026 -0.9550
    3ALA     CA   19  10.268   9.326   9.810 -1.0468 -0.0777 -0.1272
    3ALA     HA   20  10.179   9.352   9.753 -0.4142  2.5121 -0.0427
    3ALA     CB   21  10.247   9.186   9.862 -0.3898 -0.0063 -0.4309
    3ALA    HB1   22  10.244   9.125   9.772 -0.7083 -2.3592  1.0675
    3ALA    HB2   23  10.330   9.154   9.925  0.1589 -0.1039 -1.1911
    3ALA    HB3   24  10.151   9.166   9.911  0.3745 -1.1513  0.6568
    3ALA      C   25  10.294   9.437   9.925 -0.2087  0.0419  0.2210
    3ALA      O   26  10.392   9.516   9.918  0.6549 -1.2233 -0.1687
    4ALA      N   27  10.215   9.431  10.034 -0.2170  0.2390  0.1340
    4ALA      H   28  10.133   9.372  10.033 -0.6897  0.8440  1.3114
    4ALA     CA   29  10.264   9.487  10.160  0.6962  0.2339 -0.0169
    4ALA     HA   30  10.336   9.566  10.139  0.0050  0.9799  0.3928
    4ALA     CB   31  10.148   9.558  10.233  0.5215  0.5654 -0.3077
    4ALA    HB1   32  10.110   9.640  10.171 -0.6229  0.0392 -0.3380
    4ALA    HB2   33  10.073   9.481  10.250  1.0383  0.6877  2.9150
    4ALA    HB3   34  10.180   9.605  10.326 -0.1870  0.1528  0.1651
    4ALA      C   35  10.333   9.386  10.248  0.0764 -0.3420 -0.1525
    4ALA      O   36  10.282   9.280  10.275  0.0508  0.1282 -0.5753
    5NME      N   37  10.451   9.433  10.299  0.4575 -0.4935 -0.2874
    5NME      H   38  10.484   9.517  10.255 -1.0432  0.1888 -0.1636
    5NME    CH3   39  10.542   9.374  10.399  0.5844  0.4537 -0.0769
    5NME   HH31   40  10.614   9.319  10.339 -1.1074 -0.4922 -1.3487
    5NME   HH32   41  10.594   9.453  10.452  0.0450  1.1338 -0.5443
    5NME   HH33   42  10.488   9.297  10.456 -2.2705  1.3592 -1.3594
  20.91516  20.91516  20.91516
