Protein
   32
    1ACE   HH31    1  12.002  15.934  11.969 -1.4477 -0.1914 -0.2669
    1ACE    CH3    2  12.007  15.861  11.889 -0.3517  0.2690 -0.6293
    1ACE   HH32    3  12.105  15.866  11.841 -0.6755  1.3462 -1.2122
    1ACE   HH33    4  11.936  15.884  11.809  0.5151 -0.7275 -1.7374
    1ACE      C    5  11.975  15.728  11.948  0.3353  0.1582 -0.2919
    1ACE      O    6  12.033  15.624  11.919 -0.2328 -0.6560  0.2510
    2ALA      N    7  11.879  15.734  12.041  0.3008 -0.4835 -0.3707
    2ALA      H    8  11.829  15.821  12.054  0.9505 -0.1135 -0.2944
    2ALA     CA    9  11.822  15.613  12.093  0.2562  0.2134  0.4251
    2ALA     HA   10  11.902  15.539  12.107 -0.9507 -0.9677  1.2541
    2ALA     CB   11  11.769  15.634  12.236 -0.3799  0.4764  0.2787
    2ALA    HB1   12  11.689  15.708  12.237 -0.7806  0.0901  2.8673
    2ALA    HB2   13  11.740  15.533  12.267  1.4277 -0.1986 -0.0941
    2ALA    HB3   14  11.851  15.674  12.294 -0.1337  2.1619 -1.1509
    2ALA      C   15  11.718  15.551  11.999  0.6844 -0.7124 -0.2920
    2ALA      O   16  11.627  15.617  11.944 -0.4276  0.2041  0.2336
    3ALA      N   17  11.734  15.423  11.971  0.2066 -0.0729  0.3168
    3ALA      H   18  11.808  15.379  12.024  0.9001  2.0154  1.1857
    3ALA     CA   19  11.621  15.333  11.955 -0.2868 -0.2233 -0.4412
    3ALA     HA   20  11.596  15.350  11.850 -0.8879  0.6656 -0.1775
    3ALA     CB   21  11.669  15.193  11.996  0.0319  0.4576 -0.3736
    3ALA    HB1   22  11.698  15.200  12.101 -0.3429 -0.9127 -0.1560
    3ALA    HB2   23  11.588  15.121  11.981  0.4100 -0.2574  0.8069
    3ALA    HB3   24  11.754  15.158  11.937  0.1021 -0.5450  0.2826
    3ALA      C   25  11.497  15.379  12.042  0.0327  0.4588  0.0752
    3ALA      O   26  11.509  15.445  12.150  0.3654  0.3305  0.0553
    4NME      N   27  11.375  15.331  11.997 -0.3735  0.6291 -0.1412
    4NME      H   28  11.362  15.296  11.903 -2.6859 -1.8058  0.9595
    4NME    CH3   29  11.252  15.345  12.069 -0.1210 -1.0783  0.1341
    4NME   HH31   30  11.212  15.248  12.097  0.2920 -0.8850  1.4939
    4NME   HH32   31  11.273  15.392  12.165  1.5910 -1.9882  0.2349
    4NME   HH33   32  11.181  15.400  12.007  1.5813 -2.3306 -3.1626
  20.99041  20.99041  20.99041
