Protein
   32
    1ACE   HH31    1  13.679  13.099  11.532 -0.1484 -0.1217 -1.4689
    1ACE    CH3    2  13.627  13.194  11.527  0.3411  0.2557 -0.0230
    1ACE   HH32    3  13.699  13.273  11.503  2.0379 -1.2108  0.0039
    1ACE   HH33    4  13.561  13.211  11.612  0.1609 -1.1588  0.1677
    1ACE      C    5  13.548  13.163  11.398 -0.0933 -0.2731  0.3815
    1ACE      O    6  13.607  13.141  11.293  0.5396 -0.2188  1.1265
    2ALA      N    7  13.419  13.149  11.408 -0.8518  0.2189  0.0061
    2ALA      H    8  13.373  13.166  11.496  0.5235  0.5511  0.7007
    2ALA     CA    9  13.323  13.091  11.312 -0.4203  0.5644 -0.6132
    2ALA     HA   10  13.237  13.058  11.370  0.2006 -2.6368 -1.3189
    2ALA     CB   11  13.269  13.202  11.220  0.3198 -0.0417 -0.1624
    2ALA    HB1   12  13.215  13.271  11.285  0.1998  0.3531 -0.6832
    2ALA    HB2   13  13.345  13.258  11.167 -0.7545  2.1034  0.4424
    2ALA    HB3   14  13.200  13.165  11.144  0.9960  0.6262 -1.1239
    2ALA      C   15  13.369  12.959  11.243 -0.0316  1.1186 -0.5850
    2ALA      O   16  13.328  12.854  11.293 -0.1064 -0.0181 -0.0991
    3ALA      N   17  13.442  12.964  11.131  0.1003 -0.4669 -0.5242
    3ALA      H   18  13.467  13.057  11.098  2.6323 -0.1561  1.9191
    3ALA     CA   19  13.500  12.848  11.066  0.0084  0.6059 -0.2581
    3ALA     HA   20  13.427  12.768  11.078  0.9963 -0.3708 -0.6030
    3ALA     CB   21  13.521  12.874  10.912 -0.7441  0.2778 -0.0759
    3ALA    HB1   22  13.529  12.778  10.862 -3.4226 -0.4179  0.6466
    3ALA    HB2   23  13.431  12.913  10.865  0.0215 -0.5396 -2.3371
    3ALA    HB3   24  13.601  12.944  10.889  1.7138 -2.5205 -0.5282
    3ALA      C   25  13.622  12.784  11.134  0.4314 -0.3469  1.1578
    3ALA      O   26  13.693  12.702  11.078 -0.5014  0.0535 -0.1888
    4NME      N   27  13.644  12.814  11.259  0.6755 -0.0333 -0.5498
    4NME      H   28  13.570  12.864  11.306  0.7685  0.8580 -1.3223
    4NME    CH3   29  13.758  12.762  11.337  0.8176  0.0634 -0.3271
    4NME   HH31   30  13.842  12.725  11.279 -0.4481 -1.6160 -1.1378
    4NME   HH32   31  13.791  12.835  11.411 -1.0623 -0.0577  0.7117
    4NME   HH33   32  13.722  12.685  11.404  1.3412  0.9149  0.9624
  20.99041  20.99041  20.99041
