Protein
   32
    1ACE   HH31    1   8.361   8.262  13.884 -1.9243  1.5225 -1.4156
    1ACE    CH3    2   8.412   8.357  13.898  0.5132  0.0944  0.3588
    1ACE   HH32    3   8.418   8.392  13.794  0.3755 -0.6164  0.1074
    1ACE   HH33    4   8.513   8.355  13.938  0.6304 -0.5901  0.0344
    1ACE      C    5   8.309   8.429  13.982 -0.2785 -0.2980  0.3842
    1ACE      O    6   8.248   8.368  14.067  0.1519  0.2938 -0.4252
    2ALA      N    7   8.283   8.556  13.958 -0.1334 -0.1878 -0.4039
    2ALA      H    8   8.327   8.600  13.878 -0.9305 -0.9317 -1.2892
    2ALA     CA    9   8.174   8.631  14.013  0.4989 -0.7351  0.9596
    2ALA     HA   10   8.179   8.628  14.121 -0.1654  0.8641  1.0551
    2ALA     CB   11   8.187   8.777  13.965  0.2439 -0.3795 -0.2608
    2ALA    HB1   12   8.194   8.796  13.858 -1.5790  0.0715 -0.3241
    2ALA    HB2   13   8.101   8.836  13.997  0.5864  0.4104 -0.7388
    2ALA    HB3   14   8.272   8.815  14.022 -0.0140  0.7190 -0.5825
    2ALA      C   15   8.042   8.585  13.946  0.5266 -0.0424  0.7273
    2ALA      O   16   8.033   8.577  13.826  0.1352  0.1985  0.4894
    3ALA      N   17   7.934   8.564  14.022  0.6799 -0.4094 -0.2010
    3ALA      H   18   7.943   8.560  14.122 -1.4945 -1.4983  0.0185
    3ALA     CA   19   7.823   8.481  13.975  0.1144  0.2099 -0.1976
    3ALA     HA   20   7.808   8.510  13.871 -1.8432  1.6171  0.4413
    3ALA     CB   21   7.855   8.335  13.997 -0.2523  0.1313 -0.2693
    3ALA    HB1   22   7.942   8.303  13.938 -1.2135 -4.2282  0.3436
    3ALA    HB2   23   7.875   8.322  14.103 -2.1671 -2.1638 -0.1312
    3ALA    HB3   24   7.776   8.273  13.956  0.4258  0.3627 -2.0268
    3ALA      C   25   7.689   8.514  14.049  0.5239 -0.3013  0.6377
    3ALA      O   26   7.685   8.528  14.167 -0.3487  0.4180 -0.8084
    4NME      N   27   7.576   8.520  13.975  0.4162  0.3032 -0.2912
    4NME      H   28   7.583   8.506  13.875 -0.1236 -1.5531 -0.0989
    4NME    CH3   29   7.437   8.532  14.024 -0.7083  0.0351 -0.0882
    4NME   HH31   30   7.385   8.437  14.034 -0.8361 -0.0324 -1.3066
    4NME   HH32   31   7.419   8.586  14.118 -3.3652 -0.0211 -0.4967
    4NME   HH33   32   7.374   8.583  13.951  1.7122  1.0885 -1.5625
  20.99041  20.99041  20.99041
