Protein
   42
    1ACE   HH31    1   9.016  10.808   9.295  0.7268  0.9721  1.0623
    1ACE    CH3    2   9.122  10.798   9.270  0.3886  0.3607 -0.1697
    1ACE   HH32    3   9.150  10.693   9.265  0.3986  0.4086 -1.8601
    1ACE   HH33    4   9.179  10.848   9.348  0.9173  3.9618 -2.6034
    1ACE      C    5   9.150  10.881   9.146  0.5054  0.0982  0.0059
    1ACE      O    6   9.068  10.875   9.054 -0.2973 -0.1782 -0.7231
    2ALA      N    7   9.254  10.960   9.139 -0.0880 -0.5618  0.0130
    2ALA      H    8   9.310  10.961   9.223 -1.2624 -0.3181  0.8174
    2ALA     CA    9   9.299  11.034   9.018 -0.2678 -0.2731 -0.2878
    2ALA     HA   10   9.221  11.037   8.941 -0.1634  0.2211 -0.3736
    2ALA     CB   11   9.331  11.176   9.070 -0.0777  0.3549  0.4114
    2ALA    HB1   12   9.374  11.229   8.985  0.7425  1.7557  1.6610
    2ALA    HB2   13   9.240  11.222   9.109 -1.4484 -1.7210 -0.1296
    2ALA    HB3   14   9.412  11.170   9.142 -1.0500 -0.8782  1.4598
    2ALA      C   15   9.421  10.952   8.960  0.8259 -0.4426  0.4815
    2ALA      O   16   9.535  10.982   8.970  0.1786 -0.5443  0.2659
    3ALA      N   17   9.397  10.845   8.890 -0.1950  0.5349 -0.1385
    3ALA      H   18   9.485  10.806   8.859 -0.4537 -3.5431  3.3020
    3ALA     CA   19   9.270  10.796   8.826  0.6253 -0.1638 -0.2570
    3ALA     HA   20   9.189  10.860   8.862  1.8292  1.6438 -0.6016
    3ALA     CB   21   9.278  10.832   8.677  0.4299 -0.2307  0.1404
    3ALA    HB1   22   9.188  10.802   8.623  0.9936  0.5951 -1.3228
    3ALA    HB2   23   9.292  10.940   8.666 -0.8024 -0.0785 -0.1612
    3ALA    HB3   24   9.357  10.775   8.628  1.3330  0.1254  1.1789
    3ALA      C   25   9.240  10.643   8.852  0.0662 -0.3887  0.5814
    3ALA      O   26   9.329  10.563   8.864  1.0850  0.7240 -0.2322
    4ALA      N   27   9.113  10.608   8.868 -0.2844 -0.6246 -0.4314
    4ALA      H   28   9.054  10.690   8.873 -0.3574 -0.4657 -2.7665
    4ALA     CA   29   9.060  10.475   8.901 -0.0970 -0.1694  0.0260
    4ALA     HA   30   9.055  10.405   8.817 -0.8563 -2.2450  1.7061
    4ALA     CB   31   9.142  10.400   9.015  0.3023 -0.3707  0.2870
    4ALA    HB1   32   9.159  10.460   9.105  3.7294 -0.7526  0.0055
    4ALA    HB2   33   9.096  10.307   9.044 -0.2050  0.4521  2.2896
    4ALA    HB3   34   9.242  10.381   8.976  0.0016  0.3103 -0.8832
    4ALA      C   35   8.916  10.482   8.960  0.6641 -0.5087 -0.0723
    4ALA      O   36   8.846  10.383   8.951 -0.6743  0.0172 -0.3483
    5NME      N   37   8.874  10.602   9.008  0.3966  0.2050  0.1760
    5NME      H   38   8.942  10.677   9.008  1.1983 -0.4750 -1.6415
    5NME    CH3   39   8.745  10.632   9.069 -0.2270  0.7272  0.2885
    5NME   HH31   40   8.700  10.716   9.017  0.5325  1.3069  0.5403
    5NME   HH32   41   8.675  10.549   9.075  2.3166 -1.6218 -0.2756
    5NME   HH33   42   8.754  10.670   9.171 -0.6753 -1.3786  1.1698
  20.91516  20.91516  20.91516
