Protein
   22
    1ACE   HH31    1   5.589   8.247   0.878  1.6747 -0.1092  0.2050
    1ACE    CH3    2   5.596   8.257   0.987  0.8128 -0.1622  0.2677
    1ACE   HH32    3   5.675   8.200   1.034 -0.3836  0.3352  3.0916
    1ACE   HH33    4   5.505   8.212   1.028  1.7344 -2.1559  0.2593
    1ACE      C    5   5.598   8.400   1.028  0.0614  0.6919 -0.4484
    1ACE      O    6   5.494   8.459   1.059  0.0786  0.0744 -0.1753
    2ALA      N    7   5.713   8.453   1.030 -0.5180 -0.0822 -0.0016
    2ALA      H    8   5.789   8.394   0.998  0.4066  1.4371 -0.7581
    2ALA     CA    9   5.752   8.599   1.055  0.2074  0.0789  0.2081
    2ALA     HA   10   5.834   8.603   1.127  0.5228  1.3585 -0.2018
    2ALA     CB   11   5.816   8.648   0.927  0.1692 -0.5727  0.4532
    2ALA    HB1   12   5.879   8.733   0.954 -0.2455 -0.2203  0.3262
    2ALA    HB2   13   5.884   8.574   0.885  0.9585  0.7419 -0.7113
    2ALA    HB3   14   5.740   8.675   0.854  1.2237  2.6040  0.3632
    2ALA      C   15   5.651   8.697   1.122  0.6116 -0.4946 -0.1944
    2ALA      O   16   5.656   8.812   1.086  0.2439  0.6267 -0.0868
    3NME      N   17   5.585   8.665   1.238 -0.4548 -0.6214  0.3454
    3NME      H   18   5.582   8.571   1.274 -1.4942 -1.8203 -2.5837
    3NME    CH3   19   5.497   8.765   1.297  0.0011  0.1243  0.3213
    3NME   HH31   20   5.418   8.798   1.229  0.3949  2.0820  0.7356
    3NME   HH32   21   5.461   8.713   1.386  0.1986  0.9322  0.8763
    3NME   HH33   22   5.553   8.846   1.343  0.4693 -0.0460  0.0443
  10.72160  10.72160  10.72160
