Protein
   42
    1ACE   HH31    1  12.523   9.510  10.754 -1.5667  1.2379 -0.2625
    1ACE    CH3    2  12.483   9.459  10.666  0.1284 -0.0078 -0.3832
    1ACE   HH32    3  12.552   9.390  10.618  1.8145  0.3526  1.4094
    1ACE   HH33    4  12.450   9.539  10.599  0.6910 -0.4986 -1.2725
    1ACE      C    5  12.372   9.368  10.710 -0.4463  0.2382  0.1096
    1ACE      O    6  12.385   9.303  10.819  0.4618 -0.6274  0.9076
    2ALA      N    7  12.271   9.342  10.619  0.4412  0.0861  0.3240
    2ALA      H    8  12.289   9.378  10.526  0.9028 -1.7177 -0.3087
    2ALA     CA    9  12.153   9.253  10.645 -0.2944  0.3244  0.0049
    2ALA     HA   10  12.148   9.243  10.753  2.4413  2.8174  0.4944
    2ALA     CB   11  12.028   9.328  10.600  0.6756  0.4994 -0.3445
    2ALA    HB1   12  12.011   9.413  10.667 -0.5495 -0.1808  0.2290
    2ALA    HB2   13  12.046   9.362  10.498 -0.4867  1.1034 -0.3657
    2ALA    HB3   14  11.935   9.273  10.606  0.5545  0.6716 -0.6177
    2ALA      C   15  12.177   9.118  10.575  0.5193  0.2758  0.0173
    2ALA      O   16  12.089   9.071  10.505 -0.8977  0.2019  0.5416
    3ALA      N   17  12.301   9.074  10.584  0.7618 -0.2483 -0.8811
    3ALA      H   18  12.356   9.128  10.650 -1.8205 -0.3683  1.5636
    3ALA     CA   19  12.373   9.002  10.485  0.5364  0.2047  0.4855
    3ALA     HA   20  12.472   8.991  10.530  1.2936  0.6396 -0.9856
    3ALA     CB   21  12.314   8.862  10.468 -0.4512  0.1307 -0.1211
    3ALA    HB1   22  12.213   8.862  10.428  0.4250 -0.7188 -2.5747
    3ALA    HB2   23  12.366   8.809  10.388 -0.9714 -0.2091 -0.2318
    3ALA    HB3   24  12.325   8.808  10.562  1.2916 -0.0181 -0.3796
    3ALA      C   25  12.404   9.089  10.363 -0.3478  0.1639 -0.1421
    3ALA      O   26  12.519   9.118  10.338 -0.2654  0.0336 -0.0050
    4ALA      N   27  12.294   9.115  10.283  0.2099 -0.1750  0.0188
    4ALA      H   28  12.208   9.074  10.315 -0.6909  3.2395  2.5888
    4ALA     CA   29  12.289   9.226  10.189 -0.6844  0.8741 -0.5841
    4ALA     HA   30  12.315   9.201  10.086 -0.1179  0.0037 -0.2408
    4ALA     CB   31  12.139   9.267  10.178 -0.2491 -0.1956 -0.0007
    4ALA    HB1   32  12.069   9.184  10.176 -1.4643  0.7967 -1.0670
    4ALA    HB2   33  12.114   9.320  10.270  0.2073  0.6214 -0.3320
    4ALA    HB3   34  12.106   9.322  10.090 -1.5686 -0.9308  0.0156
    4ALA      C   35  12.379   9.345  10.222  0.4341 -0.2615 -0.1898
    4ALA      O   36  12.342   9.426  10.303  0.2337  0.5909 -0.5047
    5NME      N   37  12.487   9.366  10.150 -0.0153  0.1130 -0.8308
    5NME      H   38  12.512   9.294  10.083  1.1209  1.2128 -1.6376
    5NME    CH3   39  12.593   9.468  10.171  0.3499  0.4344 -0.3377
    5NME   HH31   40  12.660   9.435  10.250  2.2594  1.2324 -1.5757
    5NME   HH32   41  12.636   9.479  10.071 -0.8592 -0.1266 -0.9414
    5NME   HH33   42  12.547   9.561  10.202 -0.1002  0.1722 -0.2058
  20.91516  20.91516  20.91516
