Protein
   42
    1ACE   HH31    1   5.170  13.181   9.000 -1.9266  1.5256 -0.2729
    1ACE    CH3    2   5.113  13.101   9.046 -0.4379  0.7436  0.2862
    1ACE   HH32    3   5.008  13.128   9.057 -0.5549  0.6730 -0.6025
    1ACE   HH33    4   5.154  13.076   9.144 -0.5616 -0.8403 -0.0245
    1ACE      C    5   5.107  12.969   8.965 -1.3318 -0.3271 -1.1667
    1ACE      O    6   5.169  12.867   9.007  0.0990  0.5758  0.0101
    2ALA      N    7   5.047  12.972   8.845  0.3665  0.1532  0.3140
    2ALA      H    8   4.992  13.047   8.805 -0.1905 -0.5496 -0.2604
    2ALA     CA    9   5.085  12.880   8.737 -0.0355 -0.4333 -0.4411
    2ALA     HA   10   5.035  12.783   8.741  1.0738 -1.1053 -1.6861
    2ALA     CB   11   5.024  12.944   8.614  0.2659 -0.6869 -0.6905
    2ALA    HB1   12   5.056  13.048   8.605 -2.3950  0.2706 -0.2342
    2ALA    HB2   13   5.065  12.893   8.527  0.1533 -1.4566 -0.3128
    2ALA    HB3   14   4.916  12.954   8.629  0.8741  2.5100  3.2998
    2ALA      C   15   5.240  12.851   8.733 -0.1068  0.2521 -0.2139
    2ALA      O   16   5.322  12.941   8.718 -0.1641 -0.2487 -0.0844
    3ALA      N   17   5.280  12.726   8.763  0.3789  0.2899 -0.8039
    3ALA      H   18   5.207  12.670   8.804  0.9822 -1.3436 -1.8408
    3ALA     CA   19   5.414  12.665   8.731  0.8286 -0.3943 -0.3057
    3ALA     HA   20   5.415  12.558   8.748  0.4793 -0.4137 -0.4122
    3ALA     CB   21   5.443  12.690   8.580  0.1545 -0.1195  0.9967
    3ALA    HB1   22   5.376  12.631   8.517  3.0142 -1.7994 -0.7117
    3ALA    HB2   23   5.442  12.792   8.542  0.5219 -1.7514 -4.2655
    3ALA    HB3   24   5.544  12.661   8.553 -0.6454 -0.4106 -2.1480
    3ALA      C   25   5.521  12.736   8.827 -0.1785  0.5872 -0.0495
    3ALA      O   26   5.640  12.712   8.811  0.1216  0.2605  0.0905
    4ALA      N   27   5.481  12.826   8.923  0.0316  0.1947  0.1136
    4ALA      H   28   5.383  12.849   8.926 -0.1447 -0.1968 -1.6474
    4ALA     CA   29   5.561  12.895   9.027  0.1154  0.8156 -0.1763
    4ALA     HA   30   5.492  12.915   9.109  1.1853  1.9596  0.4752
    4ALA     CB   31   5.669  12.811   9.084  0.0543  0.6532  0.1134
    4ALA    HB1   32   5.714  12.862   9.169  0.3123 -0.1477  0.4606
    4ALA    HB2   33   5.616  12.722   9.116 -1.5690  1.5807  0.1035
    4ALA    HB3   34   5.750  12.794   9.012 -1.0696  0.0669 -1.0458
    4ALA      C   35   5.610  13.038   8.987 -0.2137 -0.0030 -0.1842
    4ALA      O   36   5.677  13.112   9.066  0.1048  0.0812  0.1969
    5NME      N   37   5.562  13.088   8.873  0.1356 -0.5367 -0.0079
    5NME      H   38   5.500  13.033   8.815  0.0173 -1.2456  0.7731
    5NME    CH3   39   5.599  13.210   8.812 -0.5649 -0.4810  0.8701
    5NME   HH31   40   5.529  13.290   8.835 -0.2592  0.7006 -1.9102
    5NME   HH32   41   5.692  13.243   8.857  0.0471  1.0317 -1.3403
    5NME   HH33   42   5.620  13.192   8.706 -3.0731  0.1104  0.2171
  20.91516  20.91516  20.91516
