Protein
   32
    1ACE   HH31    1   9.622   6.066   9.239  0.6410  0.2119 -0.7359
    1ACE    CH3    2   9.564   6.158   9.230  0.5614  0.1984 -0.3565
    1ACE   HH32    3   9.602   6.246   9.282 -0.8053  0.5161  0.1484
    1ACE   HH33    4   9.467   6.126   9.269  0.8590  0.2756  0.4678
    1ACE      C    5   9.559   6.191   9.079  0.0128  0.1171 -0.8833
    1ACE      O    6   9.534   6.305   9.037 -0.0046 -0.7102 -0.0265
    2ALA      N    7   9.598   6.089   9.006 -0.3184  0.0306  0.6687
    2ALA      H    8   9.611   6.002   9.056  2.9731 -0.1697 -0.2639
    2ALA     CA    9   9.580   6.067   8.859  0.6479 -0.0642  0.2161
    2ALA     HA   10   9.643   5.982   8.838  2.6009  1.5122 -0.6139
    2ALA     CB   11   9.428   6.042   8.854 -0.4552 -0.2159 -0.1426
    2ALA    HB1   12   9.392   6.028   8.752 -0.8007 -0.7895  0.0501
    2ALA    HB2   13   9.406   5.949   8.907  0.8721 -0.4598  0.0169
    2ALA    HB3   14   9.375   6.130   8.891  1.1273  0.5769  0.3319
    2ALA      C   15   9.615   6.178   8.747 -0.3875  0.1659 -0.4554
    2ALA      O   16   9.592   6.159   8.625  0.1939 -0.4061 -0.1309
    3ALA      N   17   9.681   6.287   8.784 -0.7244 -0.2339 -0.0561
    3ALA      H   18   9.679   6.310   8.882 -1.2038  0.5102 -0.2249
    3ALA     CA   19   9.743   6.393   8.698 -0.2746 -0.6079 -0.0072
    3ALA     HA   20   9.690   6.398   8.603 -0.3142  1.0689  0.0869
    3ALA     CB   21   9.725   6.524   8.778 -0.1884  1.0284  0.3228
    3ALA    HB1   22   9.740   6.614   8.719  2.2044  1.3624  1.3657
    3ALA    HB2   23   9.618   6.530   8.800 -0.2030  0.1131  0.5443
    3ALA    HB3   24   9.775   6.517   8.874 -1.7617 -0.9917  1.0712
    3ALA      C   25   9.888   6.377   8.653  1.0857  0.2153  0.1099
    3ALA      O   26   9.956   6.474   8.633  0.3995  0.2155  0.0072
    4NME      N   27   9.933   6.252   8.660  0.6745  0.3750 -0.0722
    4NME      H   28   9.874   6.182   8.703  1.4074 -1.6030 -2.1590
    4NME    CH3   29  10.068   6.210   8.644 -0.5617  0.2342 -0.2405
    4NME   HH31   30  10.080   6.140   8.562 -0.1359  1.3709 -1.1775
    4NME   HH32   31  10.137   6.293   8.627  0.6216 -0.8817 -1.0649
    4NME   HH33   32  10.097   6.148   8.729 -0.6883  1.5129  0.7757
  20.99041  20.99041  20.99041
