Protein
   60
    1ACE   HH31    1  18.948  24.827  22.455  0.1449 -0.2356  1.8568
    1ACE    CH3    2  18.982  24.929  22.477 -0.3035  0.2060  0.5873
    1ACE   HH32    3  19.056  24.964  22.405  0.5308 -1.8142  0.3974
    1ACE   HH33    4  18.887  24.981  22.476 -1.4296 -1.7207  0.8601
    1ACE      C    5  19.045  24.939  22.614  0.0795  0.4909  0.5363
    1ACE      O    6  19.008  25.023  22.690 -0.3209 -0.1005  0.1425
    2TRP      N    7  19.142  24.861  22.650  0.2806  0.1221  0.4181
    2TRP      H    8  19.178  24.877  22.743  0.5773  3.4275 -0.1784
    2TRP     CA    9  19.196  24.753  22.564 -0.4728  0.6654  0.4162
    2TRP     HA   10  19.125  24.715  22.491  0.5041 -0.2659 -0.0905
    2TRP     CB   11  19.327  24.801  22.489 -0.3046 -0.3048  0.3828
    2TRP    HB1   12  19.403  24.838  22.557  1.0320 -1.2494 -0.5234
    2TRP    HB2   13  19.285  24.881  22.428 -0.0938 -1.5313 -1.5002
    2TRP     CG   14  19.378  24.697  22.395 -0.2681  0.0901  0.1336
    2TRP    CD1   15  19.321  24.657  22.281 -0.0031  0.1002 -0.4382
    2TRP    HD1   16  19.229  24.698  22.242  1.3707  1.1646 -2.8734
    2TRP    NE1   17  19.391  24.550  22.227 -0.2366 -0.2651 -0.2734
    2TRP    HE1   18  19.383  24.509  22.135  2.0294  0.3883 -0.8402
    2TRP    CE2   19  19.495  24.510  22.318  0.4156  0.1385 -0.2310
    2TRP    CZ2   20  19.593  24.406  22.332  0.4023 -0.4246  0.3681
    2TRP    HZ2   21  19.595  24.343  22.244 -0.4285 -0.4812  0.3793
    2TRP    CH2   22  19.679  24.395  22.439  0.0670 -0.5285 -0.1531
    2TRP    HH2   23  19.750  24.316  22.458 -0.0518 -0.2750  1.5138
    2TRP    CZ3   24  19.659  24.482  22.545 -0.5066 -0.1487 -0.2282
    2TRP    HZ3   25  19.709  24.467  22.639 -1.3543  0.9387  0.4276
    2TRP    CE3   26  19.567  24.585  22.537  0.1340  0.3233 -0.2038
    2TRP    HE3   27  19.548  24.649  22.622 -0.5809  2.2049 -1.7234
    2TRP    CD2   28  19.487  24.606  22.429  0.0385  0.3353  1.1160
    2TRP      C   29  19.236  24.633  22.652  0.0231 -0.0140 -0.1597
    2TRP      O   30  19.301  24.646  22.755  0.1988 -0.0711  0.5469
    3TRP      N   31  19.191  24.510  22.634 -0.1023  0.3596 -0.2387
    3TRP      H   32  19.234  24.442  22.694  1.8223  0.6239 -1.2214
    3TRP     CA   33  19.094  24.452  22.541 -0.2856  0.0398 -1.2197
    3TRP     HA   34  19.056  24.520  22.465 -3.6318  0.2097  0.4309
    3TRP     CB   35  18.957  24.422  22.613 -0.9545 -0.9318 -0.2654
    3TRP    HB1   36  18.891  24.393  22.531 -0.2021 -1.6753 -0.6232
    3TRP    HB2   37  18.960  24.328  22.669  1.3401 -0.8310 -0.1334
    3TRP     CG   38  18.899  24.536  22.689  0.4926  0.0048 -0.9357
    3TRP    CD1   39  18.934  24.575  22.821 -0.0854 -0.2916 -0.1480
    3TRP    HD1   40  19.003  24.526  22.888 -1.3178 -1.1740  0.5202
    3TRP    NE1   41  18.859  24.685  22.859  0.7472  0.6299 -0.2630
    3TRP    HE1   42  18.877  24.738  22.942 -0.5719  2.3624 -1.0378
    3TRP    CE2   43  18.782  24.732  22.753  0.5479 -0.4021 -1.4047
    3TRP    CZ2   44  18.697  24.847  22.745  0.1297  0.8756 -0.2830
    3TRP    HZ2   45  18.686  24.919  22.825 -0.5363 -2.0361  2.4226
    3TRP    CH2   46  18.618  24.864  22.631 -0.3074  0.2478  0.8081
    3TRP    HH2   47  18.536  24.934  22.625 -1.0233 -0.6420 -0.6326
    3TRP    CZ3   48  18.642  24.778  22.517 -0.0075  0.5030 -0.2932
    3TRP    HZ3   49  18.578  24.779  22.430  0.1223 -0.1658 -0.4170
    3TRP    CE3   50  18.732  24.668  22.528 -0.0390  0.1271  0.2238
    3TRP    HE3   51  18.754  24.604  22.444 -0.8106  0.0379  0.0844
    3TRP    CD2   52  18.807  24.644  22.642  0.3630 -0.3952 -0.0009
    3TRP      C   53  19.149  24.327  22.469 -1.0399 -0.3526  0.1102
    3TRP      O   54  19.071  24.271  22.396 -0.5484  0.0551 -0.5095
    4NME      N   55  19.279  24.291  22.483  0.5662  0.3238  0.3107
    4NME      H   56  19.344  24.340  22.543 -0.3106  0.1894  1.4053
    4NME    CH3   57  19.325  24.167  22.432 -0.0438  0.0084 -0.7355
    4NME   HH31   58  19.279  24.085  22.486  0.1724  2.0179  2.7868
    4NME   HH32   59  19.298  24.153  22.327 -0.3329 -1.7058 -0.4597
    4NME   HH33   60  19.434  24.159  22.438  0.0748 -0.1768 -2.4735
  41.12396  41.12396  41.12396
