Protein
   42
    1ACE   HH31    1  10.164  14.347   9.719 -1.2344  0.4519  2.3181
    1ACE    CH3    2  10.085  14.394   9.661 -0.4180 -0.4551  0.3960
    1ACE   HH32    3  10.026  14.456   9.729 -2.5170 -1.1205 -0.7054
    1ACE   HH33    4  10.014  14.327   9.612 -1.3163  0.7232  0.0326
    1ACE      C    5  10.138  14.472   9.545 -0.2337 -0.1232 -0.5553
    1ACE      O    6  10.107  14.439   9.431 -0.2469 -0.2863  0.1831
    2ALA      N    7  10.223  14.571   9.580 -0.2423  0.2134  0.8569
    2ALA      H    8  10.225  14.587   9.680 -1.7223  1.1397  0.7851
    2ALA     CA    9  10.305  14.650   9.488 -0.1770 -0.0665  0.2431
    2ALA     HA   10  10.333  14.588   9.403 -0.2064  0.4346 -0.1331
    2ALA     CB   11  10.212  14.755   9.431 -0.0968  0.1923  0.7162
    2ALA    HB1   12  10.119  14.713   9.392  0.0085  1.6076 -1.2047
    2ALA    HB2   13  10.197  14.842   9.495 -1.4565  1.1583 -0.8647
    2ALA    HB3   14  10.265  14.795   9.344  0.7303 -1.8118  0.2449
    2ALA      C   15  10.426  14.713   9.556 -0.3346 -0.8957 -0.1239
    2ALA      O   16  10.415  14.827   9.611  0.5306  0.3699 -0.5427
    3ALA      N   17  10.548  14.651   9.538  0.0079 -0.1968  0.1387
    3ALA      H   18  10.630  14.698   9.575 -0.0764 -2.2281  3.2602
    3ALA     CA   19  10.559  14.513   9.554  0.0064 -0.1352 -0.3351
    3ALA     HA   20  10.497  14.457   9.484 -0.8673 -0.2274  0.4860
    3ALA     CB   21  10.709  14.469   9.532  0.2565  0.0188 -0.3993
    3ALA    HB1   22  10.769  14.501   9.617 -0.0390 -1.5184  0.4168
    3ALA    HB2   23  10.719  14.360   9.527 -1.5010 -0.2325  0.6770
    3ALA    HB3   24  10.754  14.510   9.442 -1.3922  0.0695 -1.2575
    3ALA      C   25  10.521  14.469   9.700 -0.0706 -0.2279 -0.3830
    3ALA      O   26  10.513  14.351   9.719  0.6231  0.3005  0.0518
    4ALA      N   27  10.514  14.555   9.803 -0.0405  0.1133 -0.2952
    4ALA      H   28  10.498  14.650   9.773  0.2023  0.1442 -0.3405
    4ALA     CA   29  10.476  14.533   9.947  0.2665 -0.2460  0.6648
    4ALA     HA   30  10.525  14.441   9.980 -1.3278 -1.8195 -1.0612
    4ALA     CB   31  10.519  14.645  10.029  0.6328  0.7192  0.1373
    4ALA    HB1   32  10.456  14.731  10.007 -1.1372 -0.3630  0.8123
    4ALA    HB2   33  10.500  14.619  10.134 -1.9295  0.2187 -0.3722
    4ALA    HB3   34  10.623  14.670  10.009  1.3125 -0.2704  2.1088
    4ALA      C   35  10.328  14.498   9.957  0.6021  0.0060 -0.3760
    4ALA      O   36  10.246  14.528   9.866  0.4398  0.4418  0.0778
    5NME      N   37  10.291  14.446  10.076 -0.3551  0.2349  0.0514
    5NME      H   38  10.368  14.425  10.137 -0.5230 -1.9617 -0.4301
    5NME    CH3   39  10.162  14.393  10.112 -0.6498  0.3674 -0.2193
    5NME   HH31   40  10.167  14.358  10.215  0.7334 -0.1080 -0.4202
    5NME   HH32   41  10.088  14.473  10.106 -2.4189 -1.2617 -1.2940
    5NME   HH33   42  10.136  14.306  10.051  0.3967  0.7078 -1.2106
  20.91516  20.91516  20.91516
