Protein
   42
    1ACE   HH31    1  10.423  11.865  12.570 -0.2399 -0.5835  1.8092
    1ACE    CH3    2  10.392  11.811  12.481  0.0931  0.4432  1.0486
    1ACE   HH32    3  10.284  11.808  12.493  0.0438 -0.4347  0.4871
    1ACE   HH33    4  10.424  11.707  12.487 -1.1783  0.0138  0.9001
    1ACE      C    5  10.435  11.879  12.355 -0.0281 -0.0411  0.8706
    1ACE      O    6  10.466  12.001  12.357  0.0751  0.0167  0.2988
    2ALA      N    7  10.435  11.801  12.244  0.2706  0.1378 -0.8064
    2ALA      H    8  10.407  11.704  12.251 -0.9484  0.3800 -1.8243
    2ALA     CA    9  10.485  11.841  12.113  0.4981 -0.5680  0.0396
    2ALA     HA   10  10.468  11.770  12.033  1.2076  0.9052 -1.4749
    2ALA     CB   11  10.394  11.956  12.054  0.0477 -0.5579 -0.2879
    2ALA    HB1   12  10.419  11.977  11.950  1.2753  0.7975  0.2408
    2ALA    HB2   13  10.293  11.917  12.065  0.0602 -0.4621  0.2384
    2ALA    HB3   14  10.406  12.046  12.114 -1.3423 -0.0044 -0.8028
    2ALA      C   15  10.637  11.873  12.111  0.1242  0.4640 -0.0626
    2ALA      O   16  10.706  11.850  12.011 -0.1197 -0.5293  0.1939
    3ALA      N   17  10.698  11.926  12.220 -0.0879  0.4885 -0.3389
    3ALA      H   18  10.635  11.955  12.294 -2.5020 -1.1167 -1.6363
    3ALA     CA   19  10.837  11.913  12.250  0.1926 -0.1282 -0.0357
    3ALA     HA   20  10.899  11.947  12.167  2.3613  1.0633  1.9253
    3ALA     CB   21  10.861  12.009  12.364  0.0400 -0.5926 -0.2540
    3ALA    HB1   22  10.966  11.998  12.391 -0.1830  0.1179  0.9660
    3ALA    HB2   23  10.837  12.110  12.332  1.7479 -0.4601 -1.2870
    3ALA    HB3   24  10.818  11.979  12.459  2.2544  1.1432  1.3802
    3ALA      C   25  10.869  11.766  12.288  0.1877 -0.1427 -0.1399
    3ALA      O   26  10.977  11.712  12.261 -0.4123  0.0549 -0.1791
    4ALA      N   27  10.767  11.695  12.336  0.1772 -0.2435  0.3030
    4ALA      H   28  10.683  11.751  12.347  0.2116 -0.2946  0.8367
    4ALA     CA   29  10.764  11.551  12.362  0.0899  0.3362  0.1312
    4ALA     HA   30  10.857  11.500  12.338  0.5495  1.0719  0.3020
    4ALA     CB   31  10.755  11.545  12.515  0.4060 -0.3286 -0.2121
    4ALA    HB1   32  10.657  11.579  12.548  0.1508 -1.6312  0.4413
    4ALA    HB2   33  10.752  11.439  12.541 -0.6318 -0.2405  0.0758
    4ALA    HB3   34  10.831  11.604  12.566  0.0712  0.9908 -1.1454
    4ALA      C   35  10.642  11.489  12.293  0.5333  0.8447 -0.0943
    4ALA      O   36  10.528  11.500  12.331 -0.2769  0.1308  0.7542
    5NME      N   37  10.667  11.438  12.174  0.3319 -0.7878 -0.6726
    5NME      H   38  10.765  11.439  12.150  0.8882 -3.4097  1.0635
    5NME    CH3   39  10.592  11.347  12.102  0.0160 -0.6268  0.8902
    5NME   HH31   40  10.499  11.399  12.077  0.2411  0.9789  3.0869
    5NME   HH32   41  10.631  11.333  12.002 -0.5599  0.8934  0.4298
    5NME   HH33   42  10.586  11.249  12.151 -0.7341 -0.6592  0.7448
  20.91516  20.91516  20.91516
