Protein
   42
    1ACE   HH31    1   8.089  14.303   9.188  0.7225  0.2962  0.9438
    1ACE    CH3    2   8.077  14.203   9.228  0.4021  0.1939  0.6142
    1ACE   HH32    3   8.170  14.149   9.245  2.2363  2.5086 -1.5017
    1ACE   HH33    4   8.010  14.140   9.169 -0.7856  0.0767  2.0090
    1ACE      C    5   8.006  14.220   9.361 -0.2691 -0.1437 -0.6319
    1ACE      O    6   8.078  14.229   9.460  0.1349  0.0594 -0.2406
    2ALA      N    7   7.872  14.222   9.366  0.1834 -0.0014  0.3840
    2ALA      H    8   7.819  14.210   9.281  0.5621 -0.0310  0.1463
    2ALA     CA    9   7.802  14.180   9.485  0.3081  0.1246  0.3567
    2ALA     HA   10   7.867  14.127   9.554 -1.3385 -0.4012  1.5640
    2ALA     CB   11   7.738  14.293   9.565  0.6091 -0.6050  0.3217
    2ALA    HB1   12   7.698  14.259   9.660  0.2848 -2.6771 -0.5125
    2ALA    HB2   13   7.808  14.374   9.584 -0.9652  0.6777  0.8690
    2ALA    HB3   14   7.654  14.340   9.513  1.1451 -0.1756 -0.1770
    2ALA      C   15   7.701  14.072   9.447 -0.4687 -0.0937 -0.2181
    2ALA      O   16   7.724  14.004   9.349 -0.4061  0.3070 -0.3152
    3ALA      N   17   7.593  14.049   9.522  0.2264  0.5484  0.0689
    3ALA      H   18   7.567  14.118   9.591 -0.9568 -2.2696  2.6476
    3ALA     CA   19   7.502  13.933   9.512 -0.3201  0.6019  0.0207
    3ALA     HA   20   7.516  13.878   9.419  0.5567  4.2146 -2.1864
    3ALA     CB   21   7.541  13.840   9.631 -0.3570 -0.2959 -0.2875
    3ALA    HB1   22   7.647  13.843   9.658 -1.1814 -1.6230  3.7435
    3ALA    HB2   23   7.485  13.875   9.718 -2.1295 -1.2307 -0.9880
    3ALA    HB3   24   7.516  13.737   9.606  1.5348 -0.7010 -0.6605
    3ALA      C   25   7.360  13.978   9.503  0.0203  0.6720 -0.4250
    3ALA      O   26   7.331  14.100   9.478  0.4078  0.7468 -0.0354
    4ALA      N   27   7.266  13.888   9.529 -0.7385 -0.1893  0.4290
    4ALA      H   28   7.304  13.805   9.575  1.2861  0.6039  0.3264
    4ALA     CA   29   7.121  13.917   9.539 -0.8730 -0.5412  0.1899
    4ALA     HA   30   7.112  14.011   9.593  0.5846 -0.9139  1.1441
    4ALA     CB   31   7.066  13.939   9.394  0.1276  0.1090 -0.4294
    4ALA    HB1   32   7.098  13.849   9.340  1.8675  0.3380  0.1344
    4ALA    HB2   33   6.959  13.957   9.392  0.3069  1.2151 -0.4805
    4ALA    HB3   34   7.110  14.023   9.341  0.1180 -0.1559 -0.8607
    4ALA      C   35   7.055  13.800   9.615  0.1749 -0.2931 -0.1299
    4ALA      O   36   7.122  13.696   9.638  0.1351  0.5555  0.0055
    5NME      N   37   6.930  13.826   9.648  0.0635  0.4361  0.2898
    5NME      H   38   6.896  13.921   9.643 -0.0501  0.4959  1.8090
    5NME    CH3   39   6.849  13.739   9.731  0.5948  0.0168  0.2211
    5NME   HH31   40   6.759  13.783   9.774  0.6645 -0.2258  0.6355
    5NME   HH32   41   6.837  13.646   9.675  2.3713 -1.2067  1.7333
    5NME   HH33   42   6.920  13.713   9.809  3.2274 -0.7639 -2.2565
  20.91516  20.91516  20.91516
