Protein
   32
    1ACE   HH31    1  10.486  14.402  16.320  0.5873 -0.4251 -1.4311
    1ACE    CH3    2  10.424  14.319  16.284 -0.9035  0.3040 -0.5928
    1ACE   HH32    3  10.461  14.224  16.323 -1.3560 -0.0999 -1.1294
    1ACE   HH33    4  10.412  14.306  16.177  0.5791  1.8315 -1.0021
    1ACE      C    5  10.289  14.349  16.347  0.0527  0.0375  0.4362
    1ACE      O    6  10.238  14.263  16.415 -0.7121  0.0818 -0.2573
    2ALA      N    7  10.229  14.466  16.308  0.5614  0.1158  0.2851
    2ALA      H    8  10.272  14.525  16.239 -1.0838  2.4347  1.1714
    2ALA     CA    9  10.088  14.497  16.335  0.8181  0.3253 -0.9409
    2ALA     HA   10  10.022  14.411  16.319  0.1287  0.0622  2.4962
    2ALA     CB   11  10.071  14.546  16.478  0.8916 -0.0033  0.5421
    2ALA    HB1   12   9.965  14.555  16.498  0.7973 -0.6835  0.4166
    2ALA    HB2   13  10.103  14.466  16.545  2.0218 -1.1193 -1.2238
    2ALA    HB3   14  10.122  14.639  16.504  2.4148 -0.7414  0.3275
    2ALA      C   15  10.038  14.599  16.236  0.4015 -0.1293 -0.1973
    2ALA      O   16   9.949  14.570  16.155 -0.0988 -0.5513 -0.0725
    3ALA      N   17  10.123  14.702  16.219  0.2672  0.1464 -0.1473
    3ALA      H   18  10.195  14.706  16.290  0.4656 -1.3225 -0.2434
    3ALA     CA   19  10.148  14.773  16.097  0.6720 -0.0622  0.6767
    3ALA     HA   20  10.056  14.797  16.044 -0.0009 -1.4531  1.1634
    3ALA     CB   21  10.222  14.908  16.125 -0.1706 -0.8072 -0.4653
    3ALA    HB1   22  10.312  14.887  16.184  0.8291 -1.1857 -2.0801
    3ALA    HB2   23  10.263  14.951  16.034  0.0945 -1.7475 -0.7949
    3ALA    HB3   24  10.160  14.972  16.188  0.7607 -3.4494  3.5081
    3ALA      C   25  10.228  14.684  15.996  0.0323  0.0714 -0.1938
    3ALA      O   26  10.297  14.594  16.041 -0.3471 -0.1858 -0.5233
    4NME      N   27  10.227  14.711  15.869  0.0309 -0.5009 -0.8096
    4NME      H   28  10.188  14.799  15.837 -0.4002  0.3408  1.7306
    4NME    CH3   29  10.301  14.630  15.774 -0.0318 -0.1961 -0.0608
    4NME   HH31   30  10.247  14.536  15.768 -0.4480  0.0189  0.3266
    4NME   HH32   31  10.301  14.681  15.677  0.4705  1.6079  0.8390
    4NME   HH33   32  10.399  14.622  15.820 -0.4035 -0.1439  0.7538
  20.99041  20.99041  20.99041
