Protein
   32
    1ACE   HH31    1   7.882  12.055   9.238  0.2417 -0.6966  0.2130
    1ACE    CH3    2   7.985  12.053   9.203  0.2645 -0.2227  0.2394
    1ACE   HH32    3   8.040  12.031   9.294 -0.8472  1.1748  1.2984
    1ACE   HH33    4   8.011  12.152   9.164 -1.9798 -0.0152 -0.8786
    1ACE      C    5   7.986  11.933   9.108  0.2045  0.3149  0.4678
    1ACE      O    6   7.958  11.816   9.142  0.0465  0.3322 -0.7350
    2ALA      N    7   8.024  11.960   8.987  0.0859 -0.0473 -0.4331
    2ALA      H    8   8.051  12.058   8.983  2.1719 -0.6157 -2.5057
    2ALA     CA    9   8.016  11.883   8.853 -0.1908 -0.2505 -0.8114
    2ALA     HA   10   8.054  11.957   8.782  3.0993  0.6656  1.6359
    2ALA     CB   11   8.117  11.769   8.855 -0.6343 -0.3873 -0.4618
    2ALA    HB1   12   8.101  11.682   8.791  0.3826 -2.3620  1.8159
    2ALA    HB2   13   8.217  11.810   8.843 -0.3204 -0.1842  2.0626
    2ALA    HB3   14   8.114  11.716   8.950 -0.3645 -0.6641 -0.6051
    2ALA      C   15   7.882  11.822   8.822  0.7772 -0.2837 -0.0353
    2ALA      O   16   7.819  11.839   8.715 -0.2128 -0.5615  0.6959
    3ALA      N   17   7.827  11.746   8.922 -0.0993  0.3493 -0.1957
    3ALA      H   18   7.884  11.725   9.002 -0.0143  1.1264 -0.0495
    3ALA     CA   19   7.693  11.699   8.915  0.5350  0.0400  0.3617
    3ALA     HA   20   7.643  11.733   8.824 -0.2866  3.3103  1.8461
    3ALA     CB   21   7.691  11.538   8.913  0.4957 -0.5070 -0.0854
    3ALA    HB1   22   7.587  11.506   8.909  0.5718 -0.8151  0.3174
    3ALA    HB2   23   7.742  11.509   8.821  0.8621  0.0431 -0.0614
    3ALA    HB3   24   7.742  11.502   9.002  1.8848  1.8255  0.1218
    3ALA      C   25   7.624  11.765   9.035  0.2122  0.6623  0.7677
    3ALA      O   26   7.538  11.846   9.019  0.0024 -0.0728 -0.3184
    4NME      N   27   7.663  11.719   9.151 -0.2374  0.3084  0.3445
    4NME      H   28   7.725  11.639   9.153  0.1063  0.5825  0.5932
    4NME    CH3   29   7.646  11.795   9.271  0.0849 -0.3705 -1.4283
    4NME   HH31   30   7.737  11.849   9.298  0.3246 -1.9741  1.3764
    4NME   HH32   31   7.570  11.872   9.261 -1.5596 -1.0273  3.2116
    4NME   HH33   32   7.633  11.735   9.361  0.0189  0.1357 -1.0997
  20.99041  20.99041  20.99041
