Protein
   42
    1ACE   HH31    1  12.724  13.202   4.609 -2.2187  1.4702 -0.3404
    1ACE    CH3    2  12.762  13.288   4.665 -0.2369  0.0573  0.5827
    1ACE   HH32    3  12.785  13.360   4.587 -0.5520 -0.5708 -0.1083
    1ACE   HH33    4  12.856  13.264   4.715  0.3324 -1.3042 -1.0282
    1ACE      C    5  12.663  13.346   4.764 -0.3564 -0.2946 -0.1279
    1ACE      O    6  12.700  13.395   4.866 -1.3159 -0.5638  0.2399
    2ALA      N    7  12.536  13.358   4.718 -0.4112  0.1309  0.1277
    2ALA      H    8  12.513  13.315   4.629 -0.7391 -0.4036  0.4618
    2ALA     CA    9  12.429  13.414   4.797 -0.0953  0.5967  0.5148
    2ALA     HA   10  12.452  13.519   4.815 -2.8794  1.1221  1.5946
    2ALA     CB   11  12.297  13.400   4.720 -0.0567  0.0107  0.0239
    2ALA    HB1   12  12.303  13.440   4.619 -0.2613  1.0731  0.4194
    2ALA    HB2   13  12.267  13.296   4.718  0.5756 -0.2276  1.4242
    2ALA    HB3   14  12.218  13.459   4.768 -1.0387 -1.7301  0.6252
    2ALA      C   15  12.416  13.353   4.941  0.4011  0.0241 -0.3101
    2ALA      O   16  12.382  13.239   4.951  0.2621  0.7569  0.2285
    3ALA      N   17  12.440  13.438   5.036 -0.7297 -0.0273  0.2174
    3ALA      H   18  12.469  13.529   5.002 -0.5081 -0.4020 -0.6497
    3ALA     CA   19  12.443  13.410   5.181  0.4554 -0.0532  0.4197
    3ALA     HA   20  12.408  13.499   5.233  0.0190  0.3557 -0.5506
    3ALA     CB   21  12.353  13.300   5.230  0.2240 -0.5810 -0.1443
    3ALA    HB1   22  12.348  13.301   5.339  0.0392 -1.4537 -0.1317
    3ALA    HB2   23  12.259  13.320   5.179  0.5694  0.7713 -0.2941
    3ALA    HB3   24  12.403  13.204   5.220  0.5224 -0.4158 -0.2413
    3ALA      C   25  12.580  13.405   5.239 -0.5333 -0.1171 -0.5349
    3ALA      O   26  12.585  13.384   5.361  0.3686  0.4476 -0.4642
    4ALA      N   27  12.685  13.408   5.158 -0.2586 -0.6446  0.4072
    4ALA      H   28  12.666  13.393   5.060  1.0394  0.3239 -0.0356
    4ALA     CA   29  12.822  13.381   5.202  0.2955  0.4208 -0.4605
    4ALA     HA   30  12.831  13.408   5.307  0.4415 -0.6132 -0.2043
    4ALA     CB   31  12.837  13.229   5.184  0.1687  0.5581  0.2003
    4ALA    HB1   32  12.942  13.202   5.195 -0.0473 -0.2444  0.3438
    4ALA    HB2   33  12.786  13.173   5.263  0.1783  0.8944  0.4509
    4ALA    HB3   34  12.802  13.190   5.089  0.6751 -0.6313  0.4861
    4ALA      C   35  12.929  13.457   5.123 -0.1047 -0.6872  0.1553
    4ALA      O   36  13.010  13.519   5.186  0.0496 -0.0893 -0.1901
    5NME      N   37  12.941  13.440   4.990 -0.3011  0.5612  0.6642
    5NME      H   38  12.867  13.379   4.959  1.1688 -1.3296  0.6606
    5NME    CH3   39  13.051  13.478   4.902  0.0874  0.5706 -0.1476
    5NME   HH31   40  13.031  13.429   4.807  1.6337 -0.1746 -0.1087
    5NME   HH32   41  13.058  13.586   4.890 -2.3714  0.8880  0.7310
    5NME   HH33   42  13.144  13.436   4.939  2.4194  3.9084 -1.7617
  20.91516  20.91516  20.91516
