Protein
   32
    1ACE   HH31    1  11.933  12.458   8.681  1.9712  0.2922  0.4267
    1ACE    CH3    2  12.010  12.382   8.668  0.2797 -1.3091 -0.8792
    1ACE   HH32    3  12.095  12.432   8.622 -0.3455 -0.2140 -0.8887
    1ACE   HH33    4  11.968  12.292   8.623 -0.7133 -1.2717 -0.0585
    1ACE      C    5  12.041  12.353   8.812  1.1860  0.3829 -0.0671
    1ACE      O    6  12.000  12.253   8.872 -0.0316 -0.1610 -0.1909
    2ALA      N    7  12.117  12.441   8.877 -0.2810  0.6850  0.1904
    2ALA      H    8  12.143  12.524   8.825 -0.8732  1.7997  1.6069
    2ALA     CA    9  12.165  12.433   9.024  0.3426  0.7276  0.8510
    2ALA     HA   10  12.165  12.332   9.066  0.0597  0.7680  0.9552
    2ALA     CB   11  12.316  12.475   9.031  0.0103  0.7742  0.1684
    2ALA    HB1   12  12.375  12.450   8.942  0.0811 -0.6184  0.5851
    2ALA    HB2   13  12.323  12.583   9.037  2.9925  0.6674 -0.1165
    2ALA    HB3   14  12.357  12.441   9.125 -0.3893  0.8807  0.3877
    2ALA      C   15  12.061  12.512   9.109  0.3019  0.7616 -0.5747
    2ALA      O   16  12.101  12.592   9.197 -1.0339  0.2728  0.3255
    3ALA      N   17  11.934  12.497   9.077  1.0104 -0.7579 -0.3135
    3ALA      H   18  11.903  12.425   9.014 -2.1943  0.2050 -0.0022
    3ALA     CA   19  11.826  12.566   9.151  0.2481 -0.1262 -0.5208
    3ALA     HA   20  11.869  12.639   9.220  3.9137 -2.7325  0.2431
    3ALA     CB   21  11.747  12.645   9.042 -0.3275 -0.1542 -0.4706
    3ALA    HB1   22  11.657  12.690   9.084 -0.8778 -0.7800 -0.9391
    3ALA    HB2   23  11.817  12.718   9.003  0.9544 -1.2542 -0.3181
    3ALA    HB3   24  11.726  12.578   8.959  0.4183 -1.1479  0.1192
    3ALA      C   25  11.731  12.471   9.225  0.0443 -0.2935 -0.0379
    3ALA      O   26  11.643  12.408   9.168  0.1002 -0.0907  1.1170
    4NME      N   27  11.747  12.450   9.357  0.0763  0.3536  0.4866
    4NME      H   28  11.832  12.485   9.399 -0.7606  1.1932  1.5029
    4NME    CH3   29  11.652  12.384   9.449  0.1121 -0.0455  0.6054
    4NME   HH31   30  11.698  12.356   9.544  0.5228 -1.8634 -0.0857
    4NME   HH32   31  11.572  12.452   9.478  0.2889  0.3704  0.1257
    4NME   HH33   32  11.615  12.295   9.399 -2.1938  1.0543  0.1969
  20.99041  20.99041  20.99041
