Protein
   42
    1ACE   HH31    1  15.177   4.608   7.044  0.9562  1.4107 -2.1929
    1ACE    CH3    2  15.215   4.515   7.001  0.4387  0.1997 -0.1475
    1ACE   HH32    3  15.134   4.443   6.995 -0.6356  1.4051 -0.5309
    1ACE   HH33    4  15.297   4.472   7.059 -0.1651 -0.2425  0.3949
    1ACE      C    5  15.260   4.551   6.859  0.1207  0.5831 -0.0766
    1ACE      O    6  15.215   4.483   6.766 -0.2022 -0.4190 -0.3152
    2ALA      N    7  15.338   4.652   6.841  0.5740  0.1297  0.0590
    2ALA      H    8  15.359   4.703   6.926  1.4115  0.5206 -0.3681
    2ALA     CA    9  15.391   4.704   6.712  0.2204  0.0096  0.0871
    2ALA     HA   10  15.415   4.628   6.636  1.4464  2.2171 -1.8807
    2ALA     CB   11  15.281   4.796   6.655  0.2668  0.0393  0.1787
    2ALA    HB1   12  15.316   4.844   6.563 -0.4286 -2.1366 -1.3138
    2ALA    HB2   13  15.191   4.737   6.636  0.1736  0.0584  0.5475
    2ALA    HB3   14  15.258   4.876   6.725  1.2613  1.1977 -0.7597
    2ALA      C   15  15.524   4.782   6.731  0.3023 -0.7426 -0.6039
    2ALA      O   16  15.554   4.828   6.842  0.2406  0.3962  0.0365
    3ALA      N   17  15.605   4.797   6.625  0.0891 -0.2122  0.2498
    3ALA      H   18  15.570   4.749   6.544 -2.4069  0.6901  0.7059
    3ALA     CA   19  15.743   4.851   6.610  0.5308 -0.0291  0.3872
    3ALA     HA   20  15.743   4.954   6.575 -2.0567 -1.2939 -4.0392
    3ALA     CB   21  15.827   4.841   6.740 -0.0512  0.3610 -0.1740
    3ALA    HB1   22  15.820   4.743   6.786  0.1120 -0.7063 -2.2899
    3ALA    HB2   23  15.931   4.862   6.714  0.4245 -0.0918  1.2726
    3ALA    HB3   24  15.796   4.924   6.805 -0.0071  1.2991 -1.3260
    3ALA      C   25  15.821   4.766   6.500 -0.8359  0.0878 -0.8979
    3ALA      O   26  15.767   4.672   6.442 -0.2363  0.0267  0.4586
    4ALA      N   27  15.946   4.811   6.466 -0.2013 -0.5069 -0.5488
    4ALA      H   28  15.968   4.902   6.503  2.7416 -1.4815  0.3537
    4ALA     CA   29  16.019   4.780   6.339  0.1657 -0.1688  0.8664
    4ALA     HA   30  16.066   4.683   6.355  2.4421  0.4840 -1.2543
    4ALA     CB   31  15.931   4.788   6.212  0.3078  0.0507  0.0376
    4ALA    HB1   32  15.984   4.744   6.128 -0.6258 -0.0233 -0.5337
    4ALA    HB2   33  15.838   4.732   6.226  0.0434  0.9051  1.8615
    4ALA    HB3   34  15.917   4.893   6.187  3.9268  0.9269  1.1925
    4ALA      C   35  16.136   4.880   6.324  0.4766 -0.2127 -0.0304
    4ALA      O   36  16.126   4.996   6.364  0.0786 -0.4159 -0.1785
    5NME      N   37  16.241   4.845   6.249 -0.6900  0.8029  0.1338
    5NME      H   38  16.245   4.751   6.211 -1.0528  0.6635  0.4306
    5NME    CH3   39  16.334   4.942   6.191  0.2182  0.0728  0.1182
    5NME   HH31   40  16.275   5.023   6.146 -0.7226 -0.0520  1.0745
    5NME   HH32   41  16.381   4.988   6.278 -2.3797  1.8035  0.7228
    5NME   HH33   42  16.398   4.891   6.119 -0.2706 -1.5774  0.8303
  20.91516  20.91516  20.91516
