Protein
   22
    1ACE   HH31    1   0.103   4.267   5.937  1.9418 -1.1605 -0.8817
    1ACE    CH3    2   0.034   4.212   5.874  0.0817 -0.1939  0.2119
    1ACE   HH32    3   0.077   4.111   5.875  2.1627  0.6473  0.8131
    1ACE   HH33    4   0.025   4.261   5.777 -4.1498  1.1995  1.0770
    1ACE      C    5  -0.113   4.216   5.919 -1.0740  0.2045 -0.1998
    1ACE      O    6  -0.204   4.204   5.839 -0.1475 -0.1324  0.3724
    2ALA      N    7  -0.140   4.223   6.048 -0.1125  0.8094  0.2506
    2ALA      H    8  -0.067   4.238   6.116 -1.9468  4.0689  1.7235
    2ALA     CA    9  -0.272   4.210   6.108  0.3335 -0.8005 -0.4953
    2ALA     HA   10  -0.342   4.172   6.034 -0.5426 -0.1637 -0.0138
    2ALA     CB   11  -0.255   4.119   6.230 -0.1850  0.1788  0.7328
    2ALA    HB1   12  -0.171   4.156   6.289  1.4261 -0.9526 -0.7519
    2ALA    HB2   13  -0.345   4.109   6.291 -0.2910  0.5343  0.6322
    2ALA    HB3   14  -0.221   4.021   6.195  1.9901  1.7109 -1.7146
    2ALA      C   15  -0.321   4.344   6.167 -0.0767  0.2752  0.5556
    2ALA      O   16  -0.249   4.405   6.242  0.4240 -0.1596 -0.3026
    3NME      N   17  -0.449   4.368   6.142 -0.2319 -0.7858  0.8104
    3NME      H   18  -0.504   4.299   6.093 -0.9354 -0.5156  1.2055
    3NME    CH3   19  -0.530   4.477   6.195  0.3402  0.2543 -0.0606
    3NME   HH31   20  -0.487   4.576   6.188  1.9298 -0.0812  3.2722
    3NME   HH32   21  -0.623   4.488   6.139  1.3437  0.2629 -1.7948
    3NME   HH33   22  -0.556   4.461   6.300  0.2136  1.1428  0.0508
  10.72160  10.72160  10.72160
