Protein
   42
    1ACE   HH31    1  10.381  11.088  10.532 -3.3726  1.2772 -0.5135
    1ACE    CH3    2  10.361  10.981  10.536  0.6057  0.4502 -0.0891
    1ACE   HH32    3  10.442  10.924  10.582  0.4513 -0.4287 -0.8787
    1ACE   HH33    4  10.337  10.953  10.434  0.7004 -0.6320  0.1760
    1ACE      C    5  10.243  10.955  10.628 -0.1118 -0.6007 -0.2075
    1ACE      O    6  10.148  11.031  10.619  0.0549 -1.0625  0.3291
    2ALA      N    7  10.258  10.856  10.717 -0.4470  0.2069  0.4794
    2ALA      H    8  10.345  10.805  10.720 -1.5187 -1.8050 -0.7222
    2ALA     CA    9  10.160  10.841  10.827 -0.3347  0.1180 -0.2119
    2ALA     HA   10  10.123  10.938  10.861 -2.4844  0.0471 -2.1748
    2ALA     CB   11  10.042  10.761  10.770  0.7024 -0.4493  0.1017
    2ALA    HB1   12  10.074  10.665  10.730 -2.6669 -1.3511 -0.6657
    2ALA    HB2   13   9.963  10.744  10.843 -0.0792 -0.5406 -0.7475
    2ALA    HB3   14   9.984  10.819  10.699 -3.6824 -1.3617  2.5909
    2ALA      C   15  10.215  10.782  10.961 -0.2775  0.3953  1.1273
    2ALA      O   16  10.250  10.857  11.050  0.2239  0.1526  0.1010
    3ALA      N   17  10.226  10.651  10.951 -0.0836  0.9174 -1.1433
    3ALA      H   18  10.190  10.614  10.864 -0.8126  1.1623 -0.9530
    3ALA     CA   19  10.308  10.568  11.032  0.7942 -0.2947 -0.3517
    3ALA     HA   20  10.335  10.489  10.962  0.1116 -1.2223  0.3831
    3ALA     CB   21  10.447  10.631  11.072  0.4411 -0.0731 -0.1578
    3ALA    HB1   22  10.512  10.546  11.094  0.9773  0.4309  0.2220
    3ALA    HB2   23  10.497  10.690  10.995 -0.9877  0.1345 -0.9905
    3ALA    HB3   24  10.431  10.695  11.159 -0.2283 -1.1815  0.5509
    3ALA      C   25  10.239  10.485  11.143  0.0275 -0.7151 -0.2174
    3ALA      O   26  10.308  10.428  11.226 -0.6383 -0.0907 -0.3668
    4ALA      N   27  10.104  10.479  11.142  0.1638  0.2878  0.1484
    4ALA      H   28  10.064  10.526  11.063  0.1699 -0.8179 -0.5386
    4ALA     CA   29  10.013  10.457  11.255 -0.2460  0.2934  0.1259
    4ALA     HA   30   9.913  10.490  11.225 -0.1844 -0.1221 -0.5797
    4ALA     CB   31   9.995  10.302  11.282 -0.1498  0.5317 -0.6735
    4ALA    HB1   32  10.086  10.285  11.339  0.0900  1.7097 -0.6685
    4ALA    HB2   33   9.900  10.288  11.333 -0.1805  1.5626 -0.4121
    4ALA    HB3   34   9.996  10.250  11.187  0.4787 -1.0315  0.1549
    4ALA      C   35  10.041  10.530  11.387 -0.9542  0.2987  0.1103
    4ALA      O   36   9.969  10.505  11.486 -0.8342  0.0055 -0.5069
    5NME      N   37  10.156  10.601  11.397 -0.5323  0.3906 -0.2500
    5NME      H   38  10.221  10.619  11.321 -1.2615  0.8443 -0.7869
    5NME    CH3   39  10.207  10.640  11.523 -0.0710 -0.1800 -0.3860
    5NME   HH31   40  10.314  10.658  11.511 -0.3991  2.6090  0.1448
    5NME   HH32   41  10.157  10.723  11.574 -0.2775 -0.9347  0.6753
    5NME   HH33   42  10.198  10.555  11.591  2.3961  1.1854  1.8656
  20.91516  20.91516  20.91516
