Protein
   42
    1ACE   HH31    1  11.552  12.000  12.895  0.4232 -2.0237  1.5035
    1ACE    CH3    2  11.519  11.938  12.811 -0.6048 -0.3716  0.6441
    1ACE   HH32    3  11.433  11.987  12.766 -1.1755  1.3244  3.3365
    1ACE   HH33    4  11.506  11.830  12.821  0.6242 -0.6603 -0.6819
    1ACE      C    5  11.633  11.962  12.712  0.5890 -0.0421  0.2411
    1ACE      O    6  11.728  11.888  12.705 -0.1132 -0.2519  0.3547
    2ALA      N    7  11.620  12.070  12.625  0.0648  0.5355  0.0622
    2ALA      H    8  11.531  12.115  12.638 -0.4890  0.3604 -2.5568
    2ALA     CA    9  11.700  12.092  12.501 -0.6403  0.0490  0.3294
    2ALA     HA   10  11.804  12.071  12.526 -1.0397 -1.0611  1.1011
    2ALA     CB   11  11.666  11.993  12.386  0.2339  0.9774 -0.4573
    2ALA    HB1   12  11.701  11.896  12.421  1.2055  1.0216 -1.2503
    2ALA    HB2   13  11.560  11.989  12.363 -0.3613  0.5989  2.1156
    2ALA    HB3   14  11.726  12.012  12.297  2.1552 -0.5765  0.4145
    2ALA      C   15  11.679  12.238  12.456 -0.5958 -0.1026 -0.4732
    2ALA      O   16  11.560  12.277  12.449 -0.4235  0.2274 -0.1682
    3ALA      N   17  11.781  12.317  12.427  0.0912  0.1515  0.5313
    3ALA      H   18  11.763  12.413  12.402  1.8412  0.5192  0.5279
    3ALA     CA   19  11.920  12.272  12.410  0.5272  0.3800  0.2201
    3ALA     HA   20  11.929  12.165  12.391  0.2938  0.1780  1.1942
    3ALA     CB   21  11.968  12.325  12.275 -0.1263 -0.3114 -0.1364
    3ALA    HB1   22  11.982  12.433  12.279 -1.1349 -0.1602 -0.2277
    3ALA    HB2   23  12.066  12.280  12.258  0.9461  1.4195  1.2610
    3ALA    HB3   24  11.893  12.307  12.198 -0.0227 -0.1747 -0.2686
    3ALA      C   25  12.017  12.307  12.525  1.1247 -0.0625 -1.1602
    3ALA      O   26  12.139  12.289  12.521 -0.3174 -0.5605  0.4936
    4ALA      N   27  11.962  12.369  12.628  0.5147  0.2688  0.2968
    4ALA      H   28  11.873  12.415  12.616  0.1156 -0.4892  0.3173
    4ALA     CA   29  12.022  12.420  12.753 -0.6332  0.5516 -0.1951
    4ALA     HA   30  12.091  12.342  12.784 -1.0211 -0.3748 -1.6031
    4ALA     CB   31  12.114  12.540  12.716  0.2833  0.0945  0.3687
    4ALA    HB1   32  12.198  12.500  12.659 -0.4761  0.6894 -1.2583
    4ALA    HB2   33  12.056  12.616  12.663  2.5319  2.4629  1.1223
    4ALA    HB3   34  12.152  12.578  12.810 -0.4481 -0.7428  1.0325
    4ALA      C   35  11.923  12.453  12.868 -0.7954 -0.1088 -0.1866
    4ALA      O   36  11.815  12.506  12.843 -0.2597 -0.3191 -0.0049
    5NME      N   37  11.973  12.428  12.989 -0.3451  0.5276  0.0327
    5NME      H   38  12.070  12.407  13.002 -0.2236  1.0011 -0.0859
    5NME    CH3   39  11.897  12.431  13.117 -0.0143 -0.5204 -0.1692
    5NME   HH31   40  11.825  12.511  13.101  1.2211  0.7097  0.2165
    5NME   HH32   41  11.850  12.335  13.142 -2.2953  0.2155 -1.3630
    5NME   HH33   42  11.975  12.453  13.191 -0.0401 -1.5505  0.1794
  20.91516  20.91516  20.91516
