Protein
   32
    1ACE   HH31    1  13.512   7.369  17.084 -0.1763 -0.2804 -0.1263
    1ACE    CH3    2  13.468   7.382  16.985  0.5606  0.4658 -0.3622
    1ACE   HH32    3  13.434   7.285  16.948  0.5528  0.3028  0.0700
    1ACE   HH33    4  13.546   7.429  16.925  1.4065 -0.6542 -0.1698
    1ACE      C    5  13.353   7.482  16.993  0.0974  0.3194 -0.1071
    1ACE      O    6  13.326   7.528  17.104  0.4120  0.3390 -0.2920
    2ALA      N    7  13.296   7.518  16.872 -0.3681  0.0886  0.3326
    2ALA      H    8  13.334   7.463  16.797 -1.2081 -0.8132  0.5621
    2ALA     CA    9  13.210   7.640  16.846 -0.0746  0.4780 -0.3874
    2ALA     HA   10  13.186   7.639  16.739 -1.8226 -0.7373 -0.0189
    2ALA     CB   11  13.073   7.621  16.914  0.1823 -0.0158 -0.1920
    2ALA    HB1   12  13.079   7.620  17.023 -0.5955  0.7335 -0.1269
    2ALA    HB2   13  13.008   7.704  16.886 -0.1229 -0.4214 -0.6881
    2ALA    HB3   14  13.032   7.525  16.882  1.0075 -0.7830  0.9548
    2ALA      C   15  13.287   7.768  16.863 -0.1073 -0.5919  0.1885
    2ALA      O   16  13.298   7.857  16.774  0.0331 -0.6037  0.4062
    3ALA      N   17  13.341   7.799  16.986 -0.3757 -0.0921  0.0629
    3ALA      H   18  13.336   7.730  17.059  1.1786 -0.7855 -0.4478
    3ALA     CA   19  13.455   7.905  17.004  0.2217 -0.2536  0.3436
    3ALA     HA   20  13.439   8.004  16.961 -0.7817 -1.1176 -1.4117
    3ALA     CB   21  13.484   7.937  17.147 -0.7740  0.0268  0.5229
    3ALA    HB1   22  13.398   7.978  17.199  1.2594  1.5485  2.9219
    3ALA    HB2   23  13.491   7.842  17.201  1.3239 -2.2428 -3.2948
    3ALA    HB3   24  13.580   7.987  17.157  0.5772 -1.6527 -2.4988
    3ALA      C   25  13.578   7.863  16.917  0.0978  0.4130  0.0864
    3ALA      O   26  13.577   7.760  16.848  0.2964  1.0299 -0.1554
    4NME      N   27  13.691   7.933  16.928 -0.2393 -0.1317 -0.3594
    4NME      H   28  13.690   8.014  16.990 -1.5963 -2.1403  2.4707
    4NME    CH3   29  13.821   7.901  16.863  0.1924  0.2376 -0.1897
    4NME   HH31   30  13.865   7.818  16.919 -0.1942 -1.4450 -2.2501
    4NME   HH32   31  13.797   7.867  16.763 -1.8819  0.7913  0.0828
    4NME   HH33   32  13.895   7.981  16.865  0.4885 -0.0403  1.0727
  20.99041  20.99041  20.99041
