Protein
   42
    1ACE   HH31    1  15.681  10.613   7.250  0.3539 -0.2374  0.1505
    1ACE    CH3    2  15.776  10.578   7.291  0.9457  0.5577 -0.4887
    1ACE   HH32    3  15.862  10.644   7.281  1.4656 -0.1869 -1.2229
    1ACE   HH33    4  15.803  10.486   7.239  1.9162  0.2787  0.4774
    1ACE      C    5  15.750  10.545   7.437  0.6709  0.4007  0.7726
    1ACE      O    6  15.828  10.584   7.522  0.1694  0.2826 -0.2293
    2ALA      N    7  15.635  10.475   7.453  0.4200 -1.0576  0.0788
    2ALA      H    8  15.582  10.462   7.367  1.0382  2.2671 -0.9297
    2ALA     CA    9  15.574  10.421   7.577 -0.4297  0.7043  0.4673
    2ALA     HA   10  15.580  10.313   7.580  1.0695  0.7548  3.1230
    2ALA     CB   11  15.637  10.472   7.708 -0.4038 -1.2328  0.3789
    2ALA    HB1   12  15.743  10.447   7.707  0.5633  2.1730 -2.1843
    2ALA    HB2   13  15.623  10.579   7.723 -2.0072 -1.4917  1.0160
    2ALA    HB3   14  15.596  10.420   7.795 -0.3996 -1.3264  0.3250
    2ALA      C   15  15.422  10.445   7.562  0.0812 -0.1410 -0.4295
    2ALA      O   16  15.371  10.512   7.471  0.2441  0.1805 -0.7611
    3ALA      N   17  15.358  10.384   7.664 -0.0619  0.3412  0.1168
    3ALA      H   18  15.413  10.332   7.731  0.3765  0.9000  0.1887
    3ALA     CA   19  15.215  10.373   7.691 -0.7149  0.0994 -0.9630
    3ALA     HA   20  15.178  10.468   7.729 -1.0844 -0.2994 -0.3050
    3ALA     CB   21  15.133  10.330   7.569 -0.6053  0.2999  0.4708
    3ALA    HB1   22  15.150  10.410   7.497  0.3235 -0.8454 -0.6231
    3ALA    HB2   23  15.169  10.233   7.535 -1.2320  0.5160 -0.8917
    3ALA    HB3   24  15.025  10.315   7.578 -0.4941 -0.0523  1.3074
    3ALA      C   25  15.198  10.265   7.798 -0.4485 -0.0689 -0.5389
    3ALA      O   26  15.286  10.181   7.817 -0.0262  0.3524 -0.0533
    4ALA      N   27  15.089  10.282   7.879 -0.5823  0.4021  0.2051
    4ALA      H   28  15.033  10.365   7.867  0.3612  1.0696  0.3025
    4ALA     CA   29  15.059  10.173   7.974  0.7578  0.1956 -0.4400
    4ALA     HA   30  15.140  10.190   8.045 -0.2995  0.1046  0.8358
    4ALA     CB   31  14.921  10.197   8.050 -0.3409  0.2081  1.0218
    4ALA    HB1   32  14.907  10.123   8.128 -0.9511  0.9057  1.5991
    4ALA    HB2   33  14.930  10.287   8.111  0.4770  3.0092 -2.8965
    4ALA    HB3   34  14.832  10.197   7.987  1.1240 -0.1610 -1.1477
    4ALA      C   35  15.064  10.030   7.923  0.3691 -0.6177  0.2062
    4ALA      O   36  15.005  10.005   7.816 -0.7955 -0.0470 -0.5295
    5NME      N   37  15.131   9.943   7.998 -0.3330  0.2121 -0.2607
    5NME      H   38  15.175   9.966   8.086 -1.9600  1.2097  0.3494
    5NME    CH3   39  15.139   9.798   7.961 -0.5558  0.8305  0.6007
    5NME   HH31   40  15.057   9.735   7.995 -0.9341  0.5403 -0.8183
    5NME   HH32   41  15.139   9.777   7.854  0.1391 -2.7574  1.1960
    5NME   HH33   42  15.228   9.756   8.007  0.2598  1.5255 -0.3223
  20.91516  20.91516  20.91516
