Protein
   32
    1ACE   HH31    1  11.703  12.599   8.496  0.2220  2.1330  0.3611
    1ACE    CH3    2  11.600  12.616   8.466 -0.0166  0.4351  0.1105
    1ACE   HH32    3  11.547  12.684   8.533 -1.1162  0.3447 -0.6304
    1ACE   HH33    4  11.540  12.526   8.458  0.6255  0.1040 -1.2923
    1ACE      C    5  11.590  12.684   8.335  0.0130 -0.2286 -0.0546
    1ACE      O    6  11.554  12.623   8.235  0.3023  0.0066 -0.2065
    2ALA      N    7  11.621  12.816   8.319 -0.4961 -0.0115 -0.7474
    2ALA      H    8  11.648  12.872   8.399 -0.6315 -0.3635 -0.4543
    2ALA     CA    9  11.648  12.886   8.198  0.9187 -0.7691  0.4437
    2ALA     HA   10  11.552  12.926   8.164  1.3646  0.7708  0.9098
    2ALA     CB   11  11.725  13.016   8.230 -0.3925 -0.6913  0.1311
    2ALA    HB1   12  11.674  13.073   8.307 -0.0952 -0.7771  0.3899
    2ALA    HB2   13  11.817  12.987   8.280  0.4307 -0.3442 -1.1452
    2ALA    HB3   14  11.749  13.066   8.136 -0.0733 -1.8351 -0.4244
    2ALA      C   15  11.720  12.811   8.086  0.2423 -0.2050  0.4906
    2ALA      O   16  11.833  12.770   8.102 -0.2819  0.1670  0.2728
    3ALA      N   17  11.658  12.807   7.968  0.2680  0.4399  0.2905
    3ALA      H   18  11.564  12.840   7.952 -0.5170 -1.6273  0.1376
    3ALA     CA   19  11.733  12.785   7.843 -0.1078  0.3476 -0.1188
    3ALA     HA   20  11.838  12.762   7.861  0.3246  0.6470 -2.0096
    3ALA     CB   21  11.672  12.670   7.769 -0.7671 -0.6750  0.4253
    3ALA    HB1   22  11.666  12.594   7.847  0.2406  0.0010  1.1810
    3ALA    HB2   23  11.571  12.692   7.734 -0.7523  0.0497  0.8096
    3ALA    HB3   24  11.735  12.638   7.687 -0.7593  0.7562 -0.1525
    3ALA      C   25  11.745  12.914   7.760 -0.2409  0.7851 -0.1387
    3ALA      O   26  11.664  13.007   7.762  0.5675 -0.4139  0.2907
    4NME      N   27  11.843  12.915   7.674 -0.3571 -0.0707  0.5614
    4NME      H   28  11.878  12.822   7.660 -0.5907 -0.3742  1.9642
    4NME    CH3   29  11.883  13.024   7.584  0.4255  0.1747  0.4031
    4NME   HH31   30  11.992  13.023   7.581  0.4346 -0.8550  0.3556
    4NME   HH32   31  11.865  13.001   7.479  1.5198  0.1172  0.2112
    4NME   HH33   32  11.851  13.125   7.609  0.3952  0.5379 -1.0322
  20.99041  20.99041  20.99041
