Protein
   42
    1ACE   HH31    1  11.309   6.845   6.447  0.0602  2.1015 -1.2194
    1ACE    CH3    2  11.402   6.824   6.394 -0.0981 -0.2864 -0.6897
    1ACE   HH32    3  11.438   6.923   6.367  1.1504 -0.9531 -1.5530
    1ACE   HH33    4  11.384   6.772   6.299  1.1354 -2.0842  0.0143
    1ACE      C    5  11.499   6.749   6.475  0.1598  0.0637 -0.4824
    1ACE      O    6  11.527   6.634   6.441 -0.6296 -0.2071  0.0974
    2ALA      N    7  11.551   6.805   6.585  0.6774  0.2314  0.3315
    2ALA      H    8  11.515   6.897   6.604  1.9691  1.2834 -1.8833
    2ALA     CA    9  11.648   6.743   6.679  0.0986  0.6203  0.0640
    2ALA     HA   10  11.673   6.826   6.744 -1.0076  1.0099  0.0227
    2ALA     CB   11  11.572   6.636   6.762  0.2332  0.6908 -0.2832
    2ALA    HB1   12  11.540   6.548   6.706 -0.9725  0.0491  1.3577
    2ALA    HB2   13  11.629   6.610   6.852 -0.8861  1.3087  0.6260
    2ALA    HB3   14  11.480   6.686   6.791 -0.2877 -0.4922  0.1610
    2ALA      C   15  11.784   6.688   6.631  0.2757  0.1302 -0.0990
    2ALA      O   16  11.859   6.650   6.718  0.2308 -0.2262  0.6287
    3ALA      N   17  11.812   6.681   6.496  0.3140  0.4524  0.0102
    3ALA      H   18  11.734   6.702   6.436 -1.6040  0.0122  2.2250
    3ALA     CA   19  11.935   6.643   6.424  0.1742 -0.4414  0.4453
    3ALA     HA   20  11.908   6.542   6.394  1.2862 -1.3524  2.3211
    3ALA     CB   21  11.928   6.740   6.304 -0.4197 -0.0632 -0.0067
    3ALA    HB1   22  12.009   6.722   6.233 -0.3238 -1.9458  0.5177
    3ALA    HB2   23  11.840   6.719   6.243  1.1576  0.5386 -2.6300
    3ALA    HB3   24  11.926   6.843   6.340  2.7396  0.9003 -2.2184
    3ALA      C   25  12.078   6.646   6.482  0.2495 -0.3011 -0.1665
    3ALA      O   26  12.174   6.630   6.407  0.4338  0.0469  0.0975
    4ALA      N   27  12.103   6.639   6.611 -0.2038  1.1127  0.1313
    4ALA      H   28  12.024   6.644   6.674  0.0575 -1.3879  0.7471
    4ALA     CA   29  12.224   6.577   6.663 -0.1366  0.4204  0.3610
    4ALA     HA   30  12.251   6.507   6.584  2.3506  1.6054  0.0332
    4ALA     CB   31  12.336   6.675   6.677 -0.2598 -0.7427  0.5428
    4ALA    HB1   32  12.306   6.778   6.697  2.6096  0.2586  0.1695
    4ALA    HB2   33  12.413   6.649   6.749  0.9180  0.3509 -0.2631
    4ALA    HB3   34  12.385   6.689   6.580 -0.1294  2.0790  0.9069
    4ALA      C   35  12.205   6.493   6.792 -0.4803  0.7389 -0.1999
    4ALA      O   36  12.292   6.415   6.833  0.1311 -0.3596  0.2040
    5NME      N   37  12.086   6.507   6.856  0.0962 -0.0573 -0.4058
    5NME      H   38  12.040   6.588   6.816  0.5058  0.0217 -0.7139
    5NME    CH3   39  12.060   6.471   6.999  0.0428 -0.4003  0.8429
    5NME   HH31   40  12.142   6.409   7.036 -1.4960 -5.1477 -2.7687
    5NME   HH32   41  12.049   6.559   7.062  0.6627  0.4015 -0.1442
    5NME   HH33   42  11.975   6.403   7.004  1.0987 -1.7269  1.7984
  20.91516  20.91516  20.91516
