Protein
   32
    1ACE   HH31    1  11.739  11.858  11.435  0.2236 -0.3406 -2.1020
    1ACE    CH3    2  11.836  11.816  11.462 -0.5866 -0.8074  0.4687
    1ACE   HH32    3  11.917  11.879  11.425  0.4609 -1.5773  1.3796
    1ACE   HH33    4  11.842  11.721  11.409 -1.4250 -1.6128  1.7648
    1ACE      C    5  11.862  11.798  11.610 -0.4195  0.4201 -0.9497
    1ACE      O    6  11.920  11.700  11.656 -0.4954 -0.0008 -0.3233
    2ALA      N    7  11.826  11.897  11.696 -0.8017  0.3679  0.3625
    2ALA      H    8  11.782  11.978  11.655 -3.4386 -0.7091  0.8729
    2ALA     CA    9  11.822  11.889  11.849 -0.6056  0.0116 -0.3387
    2ALA     HA   10  11.909  11.942  11.889 -0.2618 -1.6786  1.2776
    2ALA     CB   11  11.696  11.963  11.911 -0.0416 -0.1547 -0.1398
    2ALA    HB1   12  11.607  11.903  11.892  0.7186 -0.9719 -1.3563
    2ALA    HB2   13  11.697  11.968  12.020 -0.0298 -0.5537 -0.1199
    2ALA    HB3   14  11.671  12.060  11.868  2.0065  0.3751 -0.2461
    2ALA      C   15  11.832  11.745  11.913 -0.6372  0.3484  0.2616
    2ALA      O   16  11.729  11.676  11.924  0.1196  0.2183 -0.9418
    3ALA      N   17  11.947  11.709  11.964 -0.0285 -0.0080  0.1573
    3ALA      H   18  12.018  11.781  11.963  0.4113 -0.4361 -0.1077
    3ALA     CA   19  11.988  11.578  12.031  0.5532  0.9004 -0.0872
    3ALA     HA   20  12.097  11.580  12.026  0.5145  0.6882 -1.5872
    3ALA     CB   21  11.939  11.583  12.180 -0.5306  0.3308  0.5106
    3ALA    HB1   22  11.983  11.675  12.218  1.2692 -0.1287 -0.3368
    3ALA    HB2   23  11.830  11.586  12.185 -0.6425 -1.4498 -0.0581
    3ALA    HB3   24  11.969  11.485  12.219 -0.0149  0.2477 -0.0789
    3ALA      C   25  11.951  11.449  11.961 -0.3739 -0.3390 -0.4781
    3ALA      O   26  11.988  11.347  12.009 -0.1550 -0.1102  0.4026
    4NME      N   27  11.893  11.451  11.847 -0.1337 -0.2083  0.2597
    4NME      H   28  11.874  11.544  11.813  0.5474  0.4275  1.5282
    4NME    CH3   29  11.845  11.335  11.761 -0.0667 -0.0866 -0.5821
    4NME   HH31   30  11.872  11.337  11.655  2.5173  0.7692  0.0185
    4NME   HH32   31  11.895  11.244  11.796  0.8738 -0.0413 -1.7390
    4NME   HH33   32  11.736  11.334  11.766 -0.2390  0.8433 -2.9180
  20.99041  20.99041  20.99041
