Protein
   42
    1ACE   HH31    1  10.969  11.947  11.784 -1.9542  1.5620  0.9159
    1ACE    CH3    2  10.971  11.880  11.870 -0.5433 -0.0376 -0.2913
    1ACE   HH32    3  10.921  11.928  11.954  1.2346  0.1030  0.7251
    1ACE   HH33    4  11.075  11.859  11.895 -0.4301  1.3186  0.4303
    1ACE      C    5  10.903  11.757  11.823 -0.4323  0.2823 -0.2173
    1ACE      O    6  10.959  11.688  11.742  0.4001  0.5621 -1.3232
    2ALA      N    7  10.788  11.722  11.884 -0.8830  0.2043 -0.5036
    2ALA      H    8  10.762  11.779  11.963 -0.7660 -1.0815  0.4912
    2ALA     CA    9  10.704  11.602  11.864 -0.3966  0.3732 -0.3039
    2ALA     HA   10  10.629  11.618  11.942  0.8498 -0.6683  1.1727
    2ALA     CB   11  10.636  11.619  11.725  0.2935  0.1733  0.2170
    2ALA    HB1   12  10.576  11.530  11.711 -0.6014  0.9414 -1.0199
    2ALA    HB2   13  10.561  11.698  11.733 -0.0901 -0.1731  0.0712
    2ALA    HB3   14  10.709  11.635  11.645 -0.2978  0.8838 -0.1904
    2ALA      C   15  10.779  11.470  11.886  0.0996 -0.2909 -0.2800
    2ALA      O   16  10.816  11.405  11.795  0.0553 -0.3428  0.1285
    3ALA      N   17  10.786  11.420  12.010 -0.9736 -0.3381 -0.5823
    3ALA      H   18  10.838  11.334  12.004  1.5588  1.0935 -0.9325
    3ALA     CA   19  10.807  11.490  12.143 -0.2955  0.5890 -0.0279
    3ALA     HA   20  10.787  11.416  12.221 -0.3444  2.4695  1.8477
    3ALA     CB   21  10.957  11.516  12.144 -0.4217  0.5988  0.1084
    3ALA    HB1   22  10.987  11.587  12.068  3.0865  0.1197  0.8806
    3ALA    HB2   23  10.988  11.563  12.237  1.6644 -0.1602 -0.1537
    3ALA    HB3   24  11.016  11.427  12.121  0.2043  1.4816 -1.8919
    3ALA      C   25  10.714  11.607  12.176 -0.8392  0.1158  0.8183
    3ALA      O   26  10.755  11.718  12.176  0.3253 -0.2864 -0.3804
    4ALA      N   27  10.583  11.578  12.194 -0.0602 -0.3261  0.0155
    4ALA      H   28  10.552  11.482  12.195  1.1438 -0.7484 -0.7836
    4ALA     CA   29  10.481  11.677  12.207 -0.4077 -0.2908 -0.6865
    4ALA     HA   30  10.395  11.611  12.220 -1.3903  1.0545 -0.0333
    4ALA     CB   31  10.492  11.768  12.331 -0.3127 -0.8410 -0.1888
    4ALA    HB1   32  10.473  11.718  12.425  1.0407 -0.1586  0.4876
    4ALA    HB2   33  10.582  11.829  12.340 -0.7209  0.0290 -1.6459
    4ALA    HB3   34  10.415  11.845  12.319  0.0035 -0.3640  0.7691
    4ALA      C   35  10.451  11.765  12.079  0.7680 -0.5297 -0.5875
    4ALA      O   36  10.537  11.841  12.040 -0.5931  0.3074  0.0245
    5NME      N   37  10.334  11.759  12.007  0.0774 -0.5834 -0.6168
    5NME      H   38  10.269  11.690  12.042  0.0653 -1.2089 -1.8434
    5NME    CH3   39  10.307  11.836  11.894  0.1655 -0.0676 -0.2252
    5NME   HH31   40  10.353  11.807  11.799 -0.9725  1.6357 -1.3504
    5NME   HH32   41  10.200  11.849  11.877  0.1679 -0.0544 -0.2232
    5NME   HH33   42  10.350  11.935  11.911  1.0462 -0.6084  0.8107
  20.91516  20.91516  20.91516
