Protein
   42
    1ACE   HH31    1  10.309   8.194  12.966  0.9706 -0.3255 -0.3471
    1ACE    CH3    2  10.306   8.246  12.871 -0.6605  0.3986  0.0688
    1ACE   HH32    3  10.384   8.322  12.865 -0.0470 -0.2111  0.2282
    1ACE   HH33    4  10.210   8.296  12.884 -1.3011 -0.9251  0.5981
    1ACE      C    5  10.324   8.150  12.755  0.5932 -0.2631 -0.0838
    1ACE      O    6  10.429   8.085  12.744 -0.1682  0.2988  0.6019
    2ALA      N    7  10.228   8.132  12.666 -0.6618  0.4691  0.4094
    2ALA      H    8  10.138   8.173  12.687 -1.4090 -0.6868 -0.4707
    2ALA     CA    9  10.224   8.032  12.559 -0.2382 -0.0296 -0.4132
    2ALA     HA   10  10.119   8.037  12.530 -0.6879 -1.2029  0.9312
    2ALA     CB   11  10.325   8.087  12.454  0.7580 -0.0451 -0.2127
    2ALA    HB1   12  10.321   8.011  12.377 -2.3912 -0.8844  0.6081
    2ALA    HB2   13  10.294   8.188  12.425 -1.7514 -0.2254  1.4575
    2ALA    HB3   14  10.423   8.089  12.501  0.3878 -1.7167  0.7258
    2ALA      C   15  10.243   7.882  12.594 -1.0812 -0.0085  0.2905
    2ALA      O   16  10.144   7.814  12.626 -0.1832 -0.2000  0.0481
    3ALA      N   17  10.370   7.826  12.600  0.1024 -0.2075 -0.9566
    3ALA      H   18  10.450   7.882  12.574 -2.2870  1.4583 -5.8664
    3ALA     CA   19  10.393   7.681  12.620 -0.0403  0.1005 -0.2144
    3ALA     HA   20  10.300   7.624  12.629  0.4485 -0.6993 -0.1144
    3ALA     CB   21  10.473   7.623  12.504  0.2870 -0.1140  0.0208
    3ALA    HB1   22  10.417   7.646  12.414 -0.5369  1.4141  0.8775
    3ALA    HB2   23  10.574   7.664  12.505 -0.4420  1.8289 -0.5492
    3ALA    HB3   24  10.478   7.517  12.528  3.5526 -0.5831 -2.0364
    3ALA      C   25  10.456   7.636  12.759  0.1165 -0.4494  0.0329
    3ALA      O   26  10.554   7.564  12.770 -0.2807  0.0947 -0.4563
    4ALA      N   27  10.400   7.706  12.860  0.1994  0.3455 -0.1219
    4ALA      H   28  10.320   7.762  12.834  1.5241  1.3896 -2.2214
    4ALA     CA   29  10.443   7.708  13.007 -0.3030  0.5776  0.5301
    4ALA     HA   30  10.357   7.737  13.067 -1.3894 -1.0441 -0.1654
    4ALA     CB   31  10.478   7.563  13.058  0.3179 -0.8410  0.1731
    4ALA    HB1   32  10.569   7.526  13.012  0.2365 -1.4580  0.4981
    4ALA    HB2   33  10.499   7.581  13.163  2.1139  1.0930 -0.4453
    4ALA    HB3   34  10.389   7.506  13.033 -0.8567  0.1219  1.9374
    4ALA      C   35  10.552   7.811  13.042 -0.2829  0.2201 -0.1728
    4ALA      O   36  10.590   7.824  13.160 -0.0955 -0.1580  0.6643
    5NME      N   37  10.599   7.889  12.943  0.2078  0.3242 -0.5089
    5NME      H   38  10.560   7.869  12.852  0.5074 -0.0582 -0.5577
    5NME    CH3   39  10.707   7.990  12.959 -0.5684 -0.1194  1.0387
    5NME   HH31   40  10.766   7.999  12.868  0.1652 -3.1941  1.1023
    5NME   HH32   41  10.670   8.083  13.000 -1.4584 -0.2747  0.6163
    5NME   HH33   42  10.779   7.948  13.029  0.9529  1.5128  0.5383
  20.91516  20.91516  20.91516
