Protein
   60
    1ACE   HH31    1  20.622  18.589  22.669 -0.9348 -0.3887 -2.0064
    1ACE    CH3    2  20.597  18.484  22.683 -0.0582 -0.4054 -0.3159
    1ACE   HH32    3  20.679  18.414  22.665 -0.9295 -0.9444 -2.5330
    1ACE   HH33    4  20.552  18.460  22.779 -0.9065 -2.8820 -1.2459
    1ACE      C    5  20.489  18.441  22.581  0.4387 -0.1457  0.5466
    1ACE      O    6  20.518  18.375  22.486 -0.4463  0.4979  0.1095
    2TRP      N    7  20.363  18.487  22.599 -0.3078 -0.1074  0.0449
    2TRP      H    8  20.295  18.457  22.531 -1.3969  2.5410 -0.1910
    2TRP     CA    9  20.336  18.615  22.655  0.8763 -0.2630 -0.3804
    2TRP     HA   10  20.432  18.667  22.662  0.8347 -0.1977 -0.2564
    2TRP     CB   11  20.243  18.697  22.567 -0.4108 -0.3338 -0.4968
    2TRP    HB1   12  20.292  18.697  22.469  1.5624 -2.2147  0.4064
    2TRP    HB2   13  20.246  18.799  22.606 -1.6421 -0.9392  1.3204
    2TRP     CG   14  20.099  18.656  22.559  0.1222  0.2080 -0.4905
    2TRP    CD1   15  20.003  18.710  22.638  0.0931 -0.3548  0.7516
    2TRP    HD1   16  20.024  18.785  22.712  0.0394  1.2986 -0.8277
    2TRP    NE1   17  19.883  18.646  22.612 -0.2301 -0.3697  0.4883
    2TRP    HE1   18  19.796  18.669  22.657 -0.2609  0.0520  0.2187
    2TRP    CE2   19  19.897  18.554  22.517 -0.3468 -0.4203  0.2258
    2TRP    CZ2   20  19.804  18.470  22.463  0.7133 -0.2628  0.2257
    2TRP    HZ2   21  19.703  18.464  22.501  0.0761 -1.9162 -1.5619
    2TRP    CH2   22  19.838  18.385  22.354  0.2309  0.2394  0.1807
    2TRP    HH2   23  19.767  18.320  22.305  0.5358  0.5899 -0.7593
    2TRP    CZ3   24  19.978  18.378  22.317 -0.0693 -0.6732 -0.0796
    2TRP    HZ3   25  20.007  18.316  22.234  0.4631 -1.1754  0.4702
    2TRP    CE3   26  20.069  18.467  22.368 -0.2794 -0.6405 -0.3399
    2TRP    HE3   27  20.173  18.472  22.341 -0.1274  3.1404  0.3643
    2TRP    CD2   28  20.031  18.560  22.470  0.7946  0.2260 -0.6298
    2TRP      C   29  20.272  18.604  22.794  0.0557  0.4496 -0.1475
    2TRP      O   30  20.269  18.697  22.871 -0.1595 -0.1981  0.3239
    3TRP      N   31  20.207  18.499  22.847 -0.3433  0.2803 -0.3150
    3TRP      H   32  20.193  18.509  22.946 -1.3402 -1.2933 -0.2725
    3TRP     CA   33  20.162  18.371  22.799  0.3168  0.0970 -0.3158
    3TRP     HA   34  20.148  18.378  22.691  1.9493  0.9223 -0.5016
    3TRP     CB   35  20.024  18.341  22.859 -0.0345 -0.6531 -0.0714
    3TRP    HB1   36  20.017  18.392  22.954 -0.8716 -1.2159  0.1791
    3TRP    HB2   37  19.952  18.388  22.791  0.3253  0.3672  0.2579
    3TRP     CG   38  19.985  18.195  22.884  0.0750 -0.3603  0.2545
    3TRP    CD1   39  19.909  18.124  22.808  0.3142  0.0865 -0.1713
    3TRP    HD1   40  19.855  18.161  22.722  2.0725 -1.8464 -2.2734
    3TRP    NE1   41  19.896  17.997  22.862 -0.1442  0.1411  0.5388
    3TRP    HE1   42  19.836  17.927  22.822 -0.7236  1.7818 -1.7161
    3TRP    CE2   43  19.976  17.983  22.979  0.9329 -0.1063  0.0360
    3TRP    CZ2   44  19.990  17.877  23.068 -0.4638 -0.0451  0.1926
    3TRP    HZ2   45  19.939  17.783  23.049 -1.1834  0.8232 -2.7220
    3TRP    CH2   46  20.067  17.898  23.183 -0.4757 -0.0986  0.2509
    3TRP    HH2   47  20.060  17.822  23.259  0.1022  0.1971  0.6023
    3TRP    CZ3   48  20.129  18.022  23.202 -0.1141 -0.4396 -0.5142
    3TRP    HZ3   49  20.194  18.040  23.286 -1.1299 -0.4352  0.2903
    3TRP    CE3   50  20.111  18.126  23.108 -0.0754  0.0090  0.8455
    3TRP    HE3   51  20.155  18.221  23.130  1.0027 -0.6771  1.7348
    3TRP    CD2   52  20.028  18.112  22.999 -0.0858 -0.5355  0.8072
    3TRP      C   53  20.270  18.260  22.824  0.8885  0.9307  0.5328
    3TRP      O   54  20.367  18.284  22.892 -0.1232  0.3881 -0.7587
    4NME      N   55  20.250  18.147  22.758  0.1079  0.1288 -0.0108
    4NME      H   56  20.169  18.124  22.702 -0.8414  0.0996  1.3186
    4NME    CH3   57  20.335  18.037  22.792 -0.6934  1.0453  0.0060
    4NME   HH31   58  20.439  18.059  22.771 -0.7152  0.6890 -0.4866
    4NME   HH32   59  20.327  18.025  22.901  1.1453  1.0042  0.1587
    4NME   HH33   60  20.300  17.941  22.752  0.0336  0.0372  1.6763
  41.12396  41.12396  41.12396
