Protein
   42
    1ACE   HH31    1  17.216  10.906  12.923  0.3741 -1.8140 -2.5144
    1ACE    CH3    2  17.316  10.951  12.923 -0.3480  0.1469  0.5497
    1ACE   HH32    3  17.316  11.055  12.891 -0.2556  0.2058  0.7440
    1ACE   HH33    4  17.381  10.897  12.854 -0.8941 -0.1907  0.2871
    1ACE      C    5  17.381  10.936  13.063  0.3197 -0.3166  0.2090
    1ACE      O    6  17.495  10.890  13.077 -0.1507 -0.3553 -0.5034
    2ALA      N    7  17.302  10.957  13.167 -0.1084  0.2112 -0.1761
    2ALA      H    8  17.215  10.998  13.133 -0.2848 -0.1710 -0.1980
    2ALA     CA    9  17.333  10.928  13.305  0.3359  0.2485  0.2584
    2ALA     HA   10  17.418  10.994  13.322  0.3858  0.1034  0.5792
    2ALA     CB   11  17.213  10.980  13.395 -0.2055  0.1416  0.1722
    2ALA    HB1   12  17.229  10.961  13.502 -1.4613  0.0779  0.3766
    2ALA    HB2   13  17.201  11.086  13.376  1.6181  0.4357  0.4581
    2ALA    HB3   14  17.123  10.925  13.367 -0.1073 -0.9082  1.7459
    2ALA      C   15  17.355  10.776  13.339  0.0235 -0.6289 -1.0258
    2ALA      O   16  17.359  10.739  13.458  0.0529 -0.2009 -0.4928
    3ALA      N   17  17.391  10.693  13.244 -0.8075  0.2554  0.7584
    3ALA      H   18  17.390  10.718  13.146  0.0599 -2.5978 -0.0811
    3ALA     CA   19  17.460  10.564  13.271  0.0651 -0.0303 -0.7454
    3ALA     HA   20  17.484  10.558  13.377  0.3900  0.6429 -0.7697
    3ALA     CB   21  17.360  10.446  13.241  0.1481  0.1185 -0.7452
    3ALA    HB1   22  17.350  10.436  13.133 -2.1493 -0.3805 -0.5326
    3ALA    HB2   23  17.405  10.355  13.283  0.9206  1.1635  0.7823
    3ALA    HB3   24  17.262  10.457  13.288  0.1308 -0.8644 -0.5077
    3ALA      C   25  17.595  10.561  13.200 -0.2502  0.3606  0.1759
    3ALA      O   26  17.601  10.521  13.090  0.2727  0.0177  0.5488
    4ALA      N   27  17.694  10.618  13.270  0.9972  0.5719  0.0856
    4ALA      H   28  17.663  10.646  13.362 -0.1155 -1.5668  0.4271
    4ALA     CA   29  17.824  10.650  13.221  0.4986 -0.4563  0.1886
    4ALA     HA   30  17.814  10.743  13.164 -1.6911 -1.2018 -0.7373
    4ALA     CB   31  17.905  10.669  13.353 -0.0546  0.3081  0.1271
    4ALA    HB1   32  17.921  10.576  13.408  0.9229  1.1466  1.3058
    4ALA    HB2   33  18.003  10.706  13.322 -0.2513 -0.0086 -0.9342
    4ALA    HB3   34  17.862  10.752  13.409  0.8546  1.1687 -0.4202
    4ALA      C   35  17.891  10.539  13.134  0.0783  0.0643 -0.1811
    4ALA      O   36  17.963  10.450  13.181 -0.0682  0.3908  0.8048
    5NME      N   37  17.866  10.530  13.002 -0.2141 -0.2356 -0.5319
    5NME      H   38  17.808  10.606  12.970  2.4590  2.0993 -0.2059
    5NME    CH3   39  17.906  10.419  12.922  0.1934 -0.1532  0.2323
    5NME   HH31   40  17.905  10.430  12.814  3.7817 -1.2559 -0.0625
    5NME   HH32   41  18.012  10.396  12.934  0.2128 -0.4509 -0.4496
    5NME   HH33   42  17.854  10.330  12.959 -0.4684 -1.0426 -2.5659
  20.91516  20.91516  20.91516
