Protein
   32
    1ACE   HH31    1  11.170  10.038  10.980 -1.1410 -0.1891 -0.2362
    1ACE    CH3    2  11.235  10.042  10.892 -0.0603 -0.5394  0.5251
    1ACE   HH32    3  11.184  10.007  10.803  0.2990  0.6433 -0.1609
    1ACE   HH33    4  11.330   9.993  10.914 -0.0304 -0.0511  1.5758
    1ACE      C    5  11.254  10.192  10.878 -0.1662  0.1420 -0.6455
    1ACE      O    6  11.257  10.263  10.976  0.1018 -0.0437 -0.9058
    2ALA      N    7  11.276  10.249  10.756 -0.1983  0.0848  0.0956
    2ALA      H    8  11.275  10.189  10.675 -0.5121 -1.1107  0.9666
    2ALA     CA    9  11.298  10.392  10.729 -0.0487 -0.1314 -0.2266
    2ALA     HA   10  11.385  10.418  10.788  0.6546 -0.8675 -0.9298
    2ALA     CB   11  11.332  10.435  10.583  0.0939 -0.1740 -0.6089
    2ALA    HB1   12  11.417  10.377  10.546  0.3721  0.7054 -1.3883
    2ALA    HB2   13  11.252  10.414  10.513 -0.1791  1.6854 -0.9026
    2ALA    HB3   14  11.355  10.542  10.578  0.9988 -0.4200 -2.2409
    2ALA      C   15  11.179  10.466  10.781 -0.2246 -0.0818  0.6159
    2ALA      O   16  11.184  10.531  10.883  0.0614 -0.0918 -0.4362
    3ALA      N   17  11.072  10.488  10.704 -0.0839 -0.2137 -0.1526
    3ALA      H   18  11.079  10.453  10.610 -0.7245 -0.7548 -0.0085
    3ALA     CA   19  10.947  10.568  10.740  0.7191  0.4862 -0.0436
    3ALA     HA   20  10.982  10.656  10.794 -0.0730  0.8424 -0.1057
    3ALA     CB   21  10.879  10.619  10.616  0.1707  0.4140  0.0011
    3ALA    HB1   22  10.949  10.680  10.558  0.5321 -0.1562 -0.1632
    3ALA    HB2   23  10.829  10.537  10.564 -1.3204 -0.8224  3.1385
    3ALA    HB3   24  10.799  10.685  10.651  1.7520  1.3601  2.0718
    3ALA      C   25  10.845  10.488  10.819  0.6959 -0.4393  0.6800
    3ALA      O   26  10.732  10.467  10.776 -0.4844 -0.3236  0.1788
    4NME      N   27  10.884  10.435  10.932 -0.0402  0.4156 -0.0647
    4NME      H   28  10.977  10.460  10.963  0.6578 -0.3587 -1.4155
    4NME    CH3   29  10.805  10.348  11.029  0.1978 -0.1779  0.4476
    4NME   HH31   30  10.864  10.333  11.119 -0.8638 -0.2539  1.1463
    4NME   HH32   31  10.715  10.398  11.065  1.6601  1.9903  1.3431
    4NME   HH33   32  10.774  10.252  10.988  2.0537 -0.6084 -0.0262
  20.99041  20.99041  20.99041
