Protein
   42
    1ACE   HH31    1   9.285  16.829  12.530 -1.1201 -2.6928  2.5211
    1ACE    CH3    2   9.317  16.742  12.473  0.2993 -0.2739 -0.6083
    1ACE   HH32    3   9.272  16.657  12.523  1.7468 -0.1920  0.9308
    1ACE   HH33    4   9.425  16.752  12.490 -0.1795  2.1341  1.8045
    1ACE      C    5   9.274  16.755  12.328  0.0463  0.4349 -0.1495
    1ACE      O    6   9.190  16.838  12.302  0.3399  0.1668  0.2075
    2ALA      N    7   9.345  16.682  12.240 -0.2371  0.3040  0.0081
    2ALA      H    8   9.402  16.605  12.273  1.3293  0.7905 -1.4428
    2ALA     CA    9   9.320  16.692  12.097 -0.0809 -0.0417  0.1905
    2ALA     HA   10   9.225  16.745  12.093  0.6794  1.3203 -0.5840
    2ALA     CB   11   9.428  16.774  12.024  0.1928 -0.3419  0.2829
    2ALA    HB1   12   9.454  16.860  12.086  0.9113 -2.6064  3.3266
    2ALA    HB2   13   9.524  16.723  12.019  0.0097 -0.6762  0.0834
    2ALA    HB3   14   9.399  16.803  11.923 -0.2713 -0.9779  0.2275
    2ALA      C   15   9.301  16.556  12.027  0.2878 -0.1751 -0.3082
    2ALA      O   16   9.345  16.458  12.084  0.1912  0.2193  0.3342
    3ALA      N   17   9.247  16.541  11.897 -0.8793  0.6820 -0.0330
    3ALA      H   18   9.270  16.450  11.859  0.9032  1.1822 -0.2156
    3ALA     CA   19   9.139  16.614  11.826 -1.0571  0.3815 -0.3099
    3ALA     HA   20   9.187  16.671  11.746 -0.3990  0.2599  0.0003
    3ALA     CB   21   9.058  16.500  11.758  0.3744  0.5900 -0.4012
    3ALA    HB1   22   9.114  16.451  11.679  0.4651  2.6685 -1.7088
    3ALA    HB2   23   9.014  16.427  11.827 -0.3363  0.8826 -0.5368
    3ALA    HB3   24   8.980  16.546  11.697 -1.3501 -1.4304  0.1265
    3ALA      C   25   9.062  16.716  11.912 -0.0926 -0.5708 -0.0582
    3ALA      O   26   9.073  16.843  11.912 -0.1549  0.2219 -0.1097
    4ALA      N   27   8.991  16.660  12.007 -0.1951  0.1936 -0.0087
    4ALA      H   28   8.980  16.560  12.008 -0.2457  0.1890 -0.8856
    4ALA     CA   29   8.925  16.721  12.121  0.1445  0.2345 -0.2831
    4ALA     HA   30   8.986  16.806  12.151  1.8488 -0.3760 -1.7753
    4ALA     CB   31   8.786  16.769  12.086  0.6404  0.7070  0.4489
    4ALA    HB1   32   8.725  16.682  12.059 -2.0388  2.8510 -0.8362
    4ALA    HB2   33   8.743  16.815  12.175  0.3191  1.0147  0.1332
    4ALA    HB3   34   8.786  16.829  11.995 -0.6814 -0.4533 -0.3675
    4ALA      C   35   8.920  16.617  12.239 -0.3685 -0.7563 -0.1666
    4ALA      O   36   8.919  16.497  12.214 -0.1902 -0.1713 -0.0880
    5NME      N   37   8.915  16.659  12.365  0.2895  0.5304 -0.4362
    5NME      H   38   8.930  16.758  12.373  0.0330  0.4129  2.0326
    5NME    CH3   39   8.917  16.589  12.493 -0.3365 -0.2510 -0.2122
    5NME   HH31   40   9.015  16.550  12.520  1.3333  3.9506  0.3913
    5NME   HH32   41   8.897  16.656  12.576 -0.6437 -0.0679 -0.4232
    5NME   HH33   42   8.840  16.512  12.494  0.5764 -1.2053 -0.8309
  20.91516  20.91516  20.91516
