Protein
   32
    1ACE   HH31    1  11.131   8.149  12.822 -1.7111 -0.8597  1.2107
    1ACE    CH3    2  11.237   8.173  12.813 -1.8118 -0.6675  0.4396
    1ACE   HH32    3  11.255   8.281  12.804 -0.0993 -0.9784 -0.3439
    1ACE   HH33    4  11.295   8.118  12.739 -0.1388  0.1333  1.0856
    1ACE      C    5  11.291   8.141  12.944  0.3793  0.7809 -0.9409
    1ACE      O    6  11.313   8.225  13.026 -0.4938  0.4307 -0.2985
    2ALA      N    7  11.316   8.012  12.970  0.0146  0.8148  0.4776
    2ALA      H    8  11.330   7.949  12.892 -1.5145  3.1402 -1.8458
    2ALA     CA    9  11.369   7.969  13.100  0.1618  0.2294  0.5373
    2ALA     HA   10  11.335   8.025  13.187  0.6704  0.7480  0.4022
    2ALA     CB   11  11.314   7.831  13.127 -0.2651  0.6175  0.0032
    2ALA    HB1   12  11.208   7.814  13.108 -0.0969 -1.5852  0.6650
    2ALA    HB2   13  11.355   7.763  13.053  1.8901 -0.6602  2.2057
    2ALA    HB3   14  11.325   7.797  13.230 -0.3184  0.5022 -0.0269
    2ALA      C   15  11.522   7.967  13.110  0.1980 -0.4956  0.7205
    2ALA      O   16  11.592   7.907  13.035 -0.8515 -0.6638  0.4226
    3ALA      N   17  11.576   8.038  13.211 -0.5829 -0.1248 -0.2923
    3ALA      H   18  11.509   8.095  13.261  1.1315  1.7596  0.0075
    3ALA     CA   19  11.719   8.070  13.223  0.3203  0.2857 -0.7911
    3ALA     HA   20  11.755   8.117  13.131  0.4302  0.0593 -0.8660
    3ALA     CB   21  11.731   8.192  13.317  0.2813  0.3419  0.0518
    3ALA    HB1   22  11.818   8.185  13.381  1.1572  0.0700 -1.1296
    3ALA    HB2   23  11.730   8.287  13.262  1.5392  0.6249  0.4791
    3ALA    HB3   24  11.653   8.197  13.393  1.9295  2.3282  1.7298
    3ALA      C   25  11.808   7.951  13.272  0.3719 -0.2222  0.3325
    3ALA      O   26  11.829   7.929  13.389  0.1118 -0.1434 -0.2399
    4NME      N   27  11.854   7.874  13.178 -0.1480 -0.9514  0.2899
    4NME      H   28  11.821   7.896  13.085 -0.9543 -3.2641 -0.0412
    4NME    CH3   29  11.902   7.744  13.201 -0.5677  0.4794  0.0397
    4NME   HH31   30  11.826   7.667  13.204 -0.1408  0.0091  3.9936
    4NME   HH32   31  11.969   7.709  13.123 -0.3765 -1.8471  1.1431
    4NME   HH33   32  11.958   7.739  13.295 -0.9603  1.4288  0.3348
  20.99041  20.99041  20.99041
