Protein
   42
    1ACE   HH31    1  13.916  12.185  11.828  0.9960  1.1419  0.0230
    1ACE    CH3    2  13.950  12.187  11.725  0.9467 -0.2432 -0.0425
    1ACE   HH32    3  13.854  12.164  11.678  0.5026 -0.5358  0.9813
    1ACE   HH33    4  14.037  12.121  11.719  1.6102  0.5148  0.8639
    1ACE      C    5  13.997  12.333  11.719  0.3084  0.3284  0.1352
    1ACE      O    6  14.048  12.388  11.813 -0.2857 -0.4979  0.2454
    2ALA      N    7  13.984  12.382  11.595  0.5268  0.6529 -0.2001
    2ALA      H    8  13.957  12.323  11.517 -0.0661  1.8173 -0.9181
    2ALA     CA    9  14.008  12.525  11.554  0.4463 -0.1042  0.5938
    2ALA     HA   10  13.951  12.591  11.620  1.9051  0.7975  0.9753
    2ALA     CB   11  14.159  12.556  11.569  0.5071 -0.0746  0.4062
    2ALA    HB1   12  14.156  12.664  11.563 -0.6752 -0.1597 -1.6774
    2ALA    HB2   13  14.192  12.529  11.669  3.0446  0.0119 -0.3355
    2ALA    HB3   14  14.220  12.504  11.494  1.6137 -0.4213  1.5119
    2ALA      C   15  13.967  12.542  11.407  0.8109  0.2609 -0.1408
    2ALA      O   16  13.932  12.442  11.341  0.6012  0.8835 -0.3046
    3ALA      N   17  13.963  12.667  11.368 -0.3151  0.3555  0.2039
    3ALA      H   18  13.983  12.738  11.437  3.5120 -0.2274 -0.0948
    3ALA     CA   19  13.956  12.715  11.240 -0.2441 -0.3195  1.3786
    3ALA     HA   20  13.968  12.823  11.250  0.7540 -0.3518  0.7415
    3ALA     CB   21  14.075  12.668  11.160  1.0800  0.3271  0.0842
    3ALA    HB1   22  14.172  12.674  11.212  1.0120 -2.6174  0.7347
    3ALA    HB2   23  14.064  12.561  11.142 -0.6514  0.6450 -0.8799
    3ALA    HB3   24  14.071  12.716  11.063 -2.9906  0.1123 -0.0126
    3ALA      C   25  13.828  12.698  11.156 -0.4317 -0.1818  0.2768
    3ALA      O   26  13.801  12.784  11.076  0.3723 -0.0135  0.4445
    4ALA      N   27  13.744  12.599  11.195  0.9309 -0.1961  0.2433
    4ALA      H   28  13.776  12.535  11.266  0.5135 -1.2991 -0.5250
    4ALA     CA   29  13.608  12.587  11.137  0.1191 -0.8030 -0.2074
    4ALA     HA   30  13.615  12.614  11.032  0.6071 -0.0943  0.0017
    4ALA     CB   31  13.557  12.445  11.147  0.1121 -0.1484 -0.3065
    4ALA    HB1   32  13.570  12.411  11.250 -0.6482  1.8099  0.4873
    4ALA    HB2   33  13.454  12.432  11.116  0.3925  1.4081 -2.0677
    4ALA    HB3   34  13.623  12.388  11.081 -1.0102 -0.9993 -0.7115
    4ALA      C   35  13.518  12.693  11.204 -1.1578 -0.5719 -0.0557
    4ALA      O   36  13.444  12.665  11.297 -0.3195  0.4165 -0.2322
    5NME      N   37  13.513  12.813  11.149  0.0901  0.1191 -0.3008
    5NME      H   38  13.575  12.827  11.071  0.8931  2.3319  0.6451
    5NME    CH3   39  13.445  12.933  11.206 -0.0285  0.0425 -0.9659
    5NME   HH31   40  13.404  12.997  11.127 -0.6488  0.8349 -0.0205
    5NME   HH32   41  13.366  12.904  11.275  1.0791 -0.0406  0.3057
    5NME   HH33   42  13.519  12.990  11.261 -1.6551  1.1791  0.1277
  20.91516  20.91516  20.91516
