Protein
   42
    1ACE   HH31    1  16.515   8.490  14.127 -0.2522  2.5550  0.8317
    1ACE    CH3    2  16.603   8.475  14.190 -0.0306 -0.0918  0.0148
    1ACE   HH32    3  16.681   8.431  14.129 -1.0206 -0.0695 -1.3182
    1ACE   HH33    4  16.582   8.404  14.271  3.8719 -1.8809 -0.3143
    1ACE      C    5  16.631   8.615  14.245  0.5845  0.6170  0.1870
    1ACE      O    6  16.581   8.661  14.342  0.0054  0.3128  0.7019
    2ALA      N    7  16.710   8.688  14.161  0.5287  0.9886  0.3278
    2ALA      H    8  16.745   8.638  14.080 -1.5142 -1.1245  0.6254
    2ALA     CA    9  16.763   8.826  14.180 -0.5419  0.0227  0.0263
    2ALA     HA   10  16.797   8.828  14.283 -2.7704 -3.8800  1.0406
    2ALA     CB   11  16.890   8.851  14.085  0.8814 -0.4310 -0.1520
    2ALA    HB1   12  16.859   8.870  13.982  0.4567 -5.3364 -1.2141
    2ALA    HB2   13  16.956   8.928  14.124 -0.9270  1.0552  0.0971
    2ALA    HB3   14  16.949   8.759  14.087  0.2210 -0.8535  1.8262
    2ALA      C   15  16.659   8.941  14.162  0.3067 -0.3788 -0.0347
    2ALA      O   16  16.690   9.048  14.104  0.1613 -0.2004 -0.1776
    3ALA      N   17  16.533   8.909  14.203 -0.4130 -0.2734 -0.7842
    3ALA      H   18  16.526   8.816  14.241  1.7352 -1.0086 -2.0184
    3ALA     CA   19  16.402   8.981  14.205 -0.9292 -0.5398  0.0600
    3ALA     HA   20  16.336   8.923  14.140 -1.4247  1.9729 -1.8722
    3ALA     CB   21  16.348   8.970  14.345 -0.0866  0.1215 -0.4692
    3ALA    HB1   22  16.241   8.990  14.338 -0.9524 -0.8907  4.9596
    3ALA    HB2   23  16.378   8.881  14.400 -1.1114 -0.1970 -0.4096
    3ALA    HB3   24  16.392   9.046  14.410 -2.7979 -0.5276  2.3353
    3ALA      C   25  16.399   9.122  14.145  0.2340  0.2930 -0.8337
    3ALA      O   26  16.341   9.134  14.043  0.2921 -0.3646 -0.2732
    4ALA      N   27  16.447   9.228  14.208  0.6659 -0.2169 -0.8333
    4ALA      H   28  16.488   9.218  14.300 -1.9487  0.2203  0.5022
    4ALA     CA   29  16.479   9.356  14.145  0.4333 -0.6761  0.1905
    4ALA     HA   30  16.400   9.428  14.162  0.7774 -0.3768  0.5666
    4ALA     CB   31  16.600   9.410  14.220  0.2177 -0.1762 -0.1622
    4ALA    HB1   32  16.686   9.343  14.213  0.6109  0.2794  0.2585
    4ALA    HB2   33  16.643   9.505  14.189 -0.8772  0.9509  1.5598
    4ALA    HB3   34  16.568   9.422  14.324  2.0852  2.2021  0.2078
    4ALA      C   35  16.514   9.361  13.988  0.3567  0.4842  0.4416
    4ALA      O   36  16.464   9.454  13.925 -0.0296  0.4454 -0.0665
    5NME      N   37  16.598   9.270  13.941 -0.4472  0.1313  0.2198
    5NME      H   38  16.637   9.202  14.005  1.3860  2.2230  1.4549
    5NME    CH3   39  16.643   9.265  13.801  0.5151 -0.1264 -0.2821
    5NME   HH31   40  16.562   9.221  13.744 -1.2459 -0.5455  2.3490
    5NME   HH32   41  16.682   9.361  13.769  2.2053 -0.9556 -0.8317
    5NME   HH33   42  16.726   9.194  13.794  0.7240  0.2036 -1.4624
  20.91516  20.91516  20.91516
