Protein
   42
    1ACE   HH31    1   5.018  20.524  13.145  1.4537 -1.2189  2.0022
    1ACE    CH3    2   5.094  20.505  13.069 -0.2117 -0.6263  0.0818
    1ACE   HH32    3   5.109  20.397  13.074  2.7045 -0.2615  0.8474
    1ACE   HH33    4   5.191  20.550  13.092 -1.1156  2.5769 -1.7696
    1ACE      C    5   5.045  20.559  12.934 -0.3607  0.0327  0.5774
    1ACE      O    6   5.100  20.522  12.836  0.0040  0.1856 -0.0967
    2ALA      N    7   4.925  20.625  12.942 -0.4492 -0.5080  0.0309
    2ALA      H    8   4.887  20.647  13.032  1.0224  0.1395  0.5209
    2ALA     CA    9   4.880  20.711  12.832  0.2480  0.2233  0.8703
    2ALA     HA   10   4.960  20.727  12.760 -2.2898  1.2525 -1.9629
    2ALA     CB   11   4.765  20.643  12.750 -0.5134 -0.3729 -0.0353
    2ALA    HB1   12   4.682  20.625  12.819 -1.2230  0.4217 -0.6586
    2ALA    HB2   13   4.726  20.699  12.665  1.0931 -0.6063 -0.9782
    2ALA    HB3   14   4.795  20.551  12.702 -2.7727 -0.7953 -0.7860
    2ALA      C   15   4.830  20.844  12.900  0.3624 -0.8563  0.6340
    2ALA      O   16   4.834  20.858  13.028 -0.1314 -0.4633  0.0530
    3ALA      N   17   4.765  20.941  12.831 -0.3461  0.0954 -0.0195
    3ALA      H   18   4.714  21.008  12.888 -0.3128 -0.7685  1.0688
    3ALA     CA   19   4.786  20.983  12.690  0.5506  0.4606 -0.0056
    3ALA     HA   20   4.745  20.906  12.625 -1.1903  0.2564  1.2440
    3ALA     CB   21   4.695  21.106  12.676 -0.4374  0.6473 -0.7599
    3ALA    HB1   22   4.674  21.114  12.569 -1.7622  3.9794 -0.3699
    3ALA    HB2   23   4.600  21.089  12.726  0.7722  1.5717  2.0431
    3ALA    HB3   24   4.744  21.194  12.718 -1.0886  0.0093  1.4527
    3ALA      C   25   4.927  21.005  12.638  0.2256  0.5782 -0.4070
    3ALA      O   26   5.027  20.958  12.687 -0.4626  0.7193 -0.1130
    4ALA      N   27   4.938  21.089  12.536  0.8476  0.0444  0.0502
    4ALA      H   28   4.860  21.134  12.491  0.0585 -1.2254  0.0833
    4ALA     CA   29   5.065  21.157  12.484  0.5547  0.6320  0.7916
    4ALA     HA   30   5.118  21.199  12.570 -2.0611  0.3008  2.6662
    4ALA     CB   31   5.150  21.059  12.403  0.1212  0.4908 -0.5730
    4ALA    HB1   32   5.185  20.981  12.471 -0.3689  0.3006 -0.5358
    4ALA    HB2   33   5.098  21.017  12.316 -0.9044 -1.5191  0.9453
    4ALA    HB3   34   5.235  21.114  12.363 -0.6676  1.4448 -0.9778
    4ALA      C   35   5.023  21.277  12.391 -0.4587  0.2901  0.4539
    4ALA      O   36   4.905  21.301  12.373 -0.4170 -0.3108 -0.1363
    5NME      N   37   5.125  21.352  12.343  0.5953  0.3095 -0.5890
    5NME      H   38   5.220  21.332  12.372 -0.0537 -0.1673  1.3340
    5NME    CH3   39   5.117  21.465  12.260 -0.2979  0.0041  0.2572
    5NME   HH31   40   5.141  21.434  12.158 -0.8304 -2.8043  0.9031
    5NME   HH32   41   5.017  21.508  12.265 -0.6602 -0.8350  0.2971
    5NME   HH33   42   5.177  21.546  12.300 -1.6536  0.1804  2.0404
  20.91516  20.91516  20.91516
