Protein
   42
    1ACE   HH31    1   9.741  12.654  10.893 -1.5027 -1.2371  2.1186
    1ACE    CH3    2   9.762  12.737  10.961 -0.9304  0.6981 -0.2636
    1ACE   HH32    3   9.830  12.686  11.029 -2.4513 -0.1997  0.6677
    1ACE   HH33    4   9.674  12.785  11.005 -0.8313  0.3307  0.3515
    1ACE      C    5   9.837  12.849  10.884 -0.3698  0.0639 -0.4323
    1ACE      O    6   9.775  12.949  10.841  0.7338 -0.1820 -0.7649
    2ALA      N    7   9.972  12.831  10.885 -0.0583  0.2004 -0.3453
    2ALA      H    8  10.009  12.764  10.951 -0.0501  0.8664  0.3328
    2ALA     CA    9  10.065  12.903  10.801  0.2608  0.7807  0.3103
    2ALA     HA   10  10.104  12.982  10.864  0.3185  0.2330  0.9704
    2ALA     CB   11  10.181  12.810  10.785 -0.0675  1.4055  0.0003
    2ALA    HB1   12  10.206  12.761  10.879 -1.8440  0.3713 -0.0139
    2ALA    HB2   13  10.157  12.728  10.717  0.3979  0.7382  0.6129
    2ALA    HB3   14  10.273  12.858  10.753  0.3980  1.4096  1.2898
    2ALA      C   15  10.006  12.961  10.670  0.0218 -0.1095  0.6886
    2ALA      O   16   9.985  12.892  10.566 -0.5649 -0.4103  0.0048
    3ALA      N   17   9.976  13.091  10.678  0.0679 -0.0374 -0.0781
    3ALA      H   18  10.004  13.137  10.763 -0.1147 -1.3717  0.7338
    3ALA     CA   19   9.921  13.187  10.571 -0.7133  0.0088  0.0840
    3ALA     HA   20   9.990  13.270  10.582  0.0082 -0.4405 -0.9503
    3ALA     CB   21   9.932  13.132  10.428  0.1123  0.0838  0.5249
    3ALA    HB1   22   9.859  13.054  10.409 -1.7648  1.2971  2.3128
    3ALA    HB2   23   9.912  13.216  10.360  0.8485  0.8183  1.1927
    3ALA    HB3   24  10.030  13.093  10.399  0.3804 -0.2870  1.8892
    3ALA      C   25   9.782  13.247  10.611 -0.0874 -0.1573  0.1397
    3ALA      O   26   9.759  13.366  10.583 -0.7939  0.0076  0.8571
    4ALA      N   27   9.695  13.166  10.667  0.0652 -0.1791 -0.4889
    4ALA      H   28   9.740  13.086  10.707  0.5235 -0.2420 -1.1169
    4ALA     CA   29   9.553  13.188  10.684 -0.3381 -0.2841  0.0794
    4ALA     HA   30   9.529  13.280  10.632  1.4133  0.9158  1.2670
    4ALA     CB   31   9.479  13.081  10.599 -0.3502 -0.2922  0.1492
    4ALA    HB1   32   9.376  13.110  10.577 -0.1999  1.0335  1.1200
    4ALA    HB2   33   9.538  13.057  10.511 -0.3106 -1.6147  0.5168
    4ALA    HB3   34   9.475  12.997  10.667 -2.5588  0.3366  0.8673
    4ALA      C   35   9.497  13.209  10.820 -0.2792  0.0640 -0.4397
    4ALA      O   36   9.377  13.249  10.829 -0.1595  0.0773 -0.1594
    5NME      N   37   9.571  13.209  10.928  0.0575  0.0956 -0.0320
    5NME      H   38   9.668  13.186  10.912  1.7662  4.9007  1.8490
    5NME    CH3   39   9.532  13.245  11.061  0.0956 -0.5137  0.0923
    5NME   HH31   40   9.604  13.230  11.141  0.8530 -0.5499 -0.5866
    5NME   HH32   41   9.517  13.352  11.078  0.5805 -0.5137  0.5434
    5NME   HH33   42   9.436  13.198  11.084 -1.4968  2.8784  1.2040
  20.91516  20.91516  20.91516
