Protein
   42
    1ACE   HH31    1  13.766   8.197  10.480  0.3573  0.1569 -1.6056
    1ACE    CH3    2  13.865   8.165  10.448  0.9448  0.5647 -0.2786
    1ACE   HH32    3  13.866   8.062  10.484  1.5671  0.8726  0.6237
    1ACE   HH33    4  13.937   8.220  10.509 -0.2400  3.3570 -1.1842
    1ACE      C    5  13.877   8.167  10.296  0.0937  0.4216 -0.2041
    1ACE      O    6  13.930   8.068  10.248 -0.1187  0.2693  1.0082
    2ALA      N    7  13.833   8.270  10.231  0.2210  0.4084  0.2475
    2ALA      H    8  13.765   8.322  10.285  0.9075  0.4912  1.0409
    2ALA     CA    9  13.813   8.293  10.089 -0.1439 -0.8744 -0.0627
    2ALA     HA   10  13.746   8.378  10.077 -3.2745 -3.2288 -0.8773
    2ALA     CB   11  13.941   8.342  10.031 -0.4565 -0.2203  0.5960
    2ALA    HB1   12  13.913   8.384   9.934 -0.1339  0.8091  0.9256
    2ALA    HB2   13  13.976   8.429  10.087 -0.4530  0.4205 -0.3769
    2ALA    HB3   14  14.015   8.264  10.015  0.7982  0.8568  0.9267
    2ALA      C   15  13.749   8.181  10.005  0.3394  0.5483 -0.0604
    2ALA      O   16  13.728   8.200   9.885  0.2450  0.3577 -0.6842
    3ALA      N   17  13.732   8.060  10.068  0.2985  0.2702  0.2576
    3ALA      H   18  13.760   8.046  10.164  1.3495 -1.2237 -0.2280
    3ALA     CA   19  13.677   7.933  10.002 -0.0290  0.6757 -0.9325
    3ALA     HA   20  13.752   7.859  10.031  0.2589  1.4458  0.4050
    3ALA     CB   21  13.540   7.914  10.071  0.1124 -0.2766 -0.0585
    3ALA    HB1   22  13.507   7.816  10.035  0.6785 -0.8657  0.9901
    3ALA    HB2   23  13.548   7.899  10.179 -1.3767 -1.8230 -0.1153
    3ALA    HB3   24  13.465   7.989  10.045 -0.9011 -1.4369 -0.5818
    3ALA      C   25  13.679   7.920   9.848  0.7141 -0.4154 -0.3247
    3ALA      O   26  13.576   7.895   9.782 -0.4043  0.1609  0.4309
    4ALA      N   27  13.802   7.932   9.798  0.0263 -0.2990 -0.1601
    4ALA      H   28  13.875   7.965   9.860 -0.2819 -1.0119  0.6158
    4ALA     CA   29  13.838   7.918   9.655  0.3251  0.5345  0.0890
    4ALA     HA   30  13.945   7.938   9.655  0.5413 -0.5571 -0.7041
    4ALA     CB   31  13.826   7.767   9.606 -0.0776 -0.3660 -0.2279
    4ALA    HB1   32  13.721   7.751   9.583 -1.3129  0.8007  3.8007
    4ALA    HB2   33  13.888   7.758   9.516 -0.8835 -0.4990 -0.7777
    4ALA    HB3   34  13.859   7.699   9.683  2.8071  2.0293  0.8676
    4ALA      C   35  13.763   8.020   9.564 -0.3882 -0.0371  0.5420
    4ALA      O   36  13.751   8.000   9.445 -0.0595 -0.3708  0.0639
    5NME      N   37  13.714   8.133   9.617  0.1942  0.4169 -0.5781
    5NME      H   38  13.725   8.153   9.716 -1.7629  2.3333 -0.6691
    5NME    CH3   39  13.636   8.234   9.544  0.2703 -0.0459  0.2375
    5NME   HH31   40  13.619   8.324   9.604  0.9763  0.4927 -0.3322
    5NME   HH32   41  13.690   8.256   9.452  2.9747 -1.9281  1.2198
    5NME   HH33   42  13.545   8.183   9.514  0.3246  0.9383 -1.8118
  20.91516  20.91516  20.91516
