Protein
   32
    1ACE   HH31    1   3.999  12.931  11.388 -3.0181  3.9230 -0.0814
    1ACE    CH3    2   3.919  12.859  11.367 -0.1114  0.5683 -0.6210
    1ACE   HH32    3   3.955  12.783  11.298 -2.8718 -0.7112 -0.7805
    1ACE   HH33    4   3.828  12.896  11.319 -0.2160  0.0846 -0.8008
    1ACE      C    5   3.886  12.789  11.500  0.1378 -0.2270 -0.1386
    1ACE      O    6   3.931  12.832  11.602 -0.4376 -0.0695 -0.0763
    2ALA      N    7   3.817  12.677  11.485  0.1422  0.1951  0.0024
    2ALA      H    8   3.785  12.648  11.393  1.3696 -3.0799  0.4592
    2ALA     CA    9   3.778  12.578  11.584  0.5687 -0.5925  0.6922
    2ALA     HA   10   3.688  12.605  11.640  1.2074 -0.4624  1.6831
    2ALA     CB   11   3.723  12.464  11.489 -0.2158 -0.2611  0.2436
    2ALA    HB1   12   3.654  12.401  11.544 -1.3920 -0.7630 -1.6817
    2ALA    HB2   13   3.669  12.501  11.402 -0.8375  0.3846  0.8997
    2ALA    HB3   14   3.811  12.410  11.454  0.2318  0.9505 -0.5711
    2ALA      C   15   3.867  12.535  11.707  0.6291  0.2161  0.0921
    2ALA      O   16   3.838  12.429  11.762 -1.0721  0.1350  1.0035
    3ALA      N   17   3.973  12.607  11.743  0.1859 -0.7084 -0.0770
    3ALA      H   18   3.977  12.702  11.709 -1.3814 -0.5117  0.1731
    3ALA     CA   19   4.057  12.558  11.856  0.1119 -0.8746  0.2867
    3ALA     HA   20   4.062  12.452  11.830  2.7198 -0.8401  0.4826
    3ALA     CB   21   4.198  12.623  11.864  0.4603  0.9625 -1.0385
    3ALA    HB1   22   4.262  12.560  11.927 -1.5133  1.3639  1.5557
    3ALA    HB2   23   4.251  12.613  11.770  1.9621 -2.1263 -0.0024
    3ALA    HB3   24   4.187  12.728  11.894  1.1843  0.9226 -0.5909
    3ALA      C   25   3.985  12.569  11.991  0.7544 -0.3075 -0.4343
    3ALA      O   26   3.938  12.679  12.028 -0.2837 -0.0767 -0.0170
    4NME      N   27   3.966  12.455  12.063 -0.1848  0.5261  0.2272
    4NME      H   28   3.993  12.364  12.030 -0.1207 -0.2263  2.2439
    4NME    CH3   29   3.911  12.458  12.196  0.7536  0.7292 -0.2442
    4NME   HH31   30   3.969  12.516  12.268 -0.2840  1.1054  0.3085
    4NME   HH32   31   3.817  12.513  12.202  1.4747  2.1123 -0.9841
    4NME   HH33   32   3.896  12.361  12.242 -0.4725  1.4077  0.8704
  20.99041  20.99041  20.99041
