Protein
   32
    1ACE   HH31    1  11.462  15.202  14.699  0.6099  1.0340  0.4809
    1ACE    CH3    2  11.388  15.281  14.688  0.1084  0.5052 -0.0282
    1ACE   HH32    3  11.294  15.231  14.667  0.2991  0.7973 -1.7502
    1ACE   HH33    4  11.417  15.347  14.606  3.0171  1.4515  1.6294
    1ACE      C    5  11.383  15.360  14.814 -0.2893  0.2545  0.3065
    1ACE      O    6  11.450  15.336  14.913  0.2707  0.4621 -0.1469
    2ALA      N    7  11.301  15.463  14.814  0.0900 -0.4813 -0.1124
    2ALA      H    8  11.256  15.484  14.726  0.2779 -1.7431 -0.5270
    2ALA     CA    9  11.256  15.535  14.932 -0.4892 -0.1201  0.0082
    2ALA     HA   10  11.344  15.550  14.994  2.5729  0.9027 -4.1146
    2ALA     CB   11  11.221  15.680  14.895  0.5678  0.1359 -0.9329
    2ALA    HB1   12  11.306  15.745  14.875 -1.4489  2.2855 -3.3136
    2ALA    HB2   13  11.153  15.691  14.810 -1.4124  3.7390  0.8863
    2ALA    HB3   14  11.167  15.723  14.980  2.0405 -0.8597  0.5756
    2ALA      C   15  11.147  15.455  15.017 -0.0834  0.0822  0.3114
    2ALA      O   16  11.121  15.342  14.983  0.9361  0.1176 -0.5535
    3ALA      N   17  11.076  15.514  15.117 -0.2446  0.2909  0.0217
    3ALA      H   18  11.108  15.605  15.147 -0.8509  0.6462 -0.3898
    3ALA     CA   19  10.962  15.449  15.189  0.3029  0.1879 -0.6884
    3ALA     HA   20  10.974  15.341  15.187  1.5395  0.0132  4.1258
    3ALA     CB   21  10.974  15.479  15.341 -0.0552  0.2109  0.0011
    3ALA    HB1   22  10.910  15.411  15.398  0.1275  0.4736  0.5289
    3ALA    HB2   23  11.077  15.478  15.377 -0.2541 -0.4046  0.5724
    3ALA    HB3   24  10.931  15.579  15.349  0.8280  0.7420 -1.5034
    3ALA      C   25  10.829  15.477  15.111 -0.0783 -0.4027 -0.6341
    3ALA      O   26  10.759  15.562  15.158  0.1711 -0.1302 -0.3810
    4NME      N   27  10.804  15.415  14.997  0.0356  0.1013 -0.5585
    4NME      H   28  10.876  15.350  14.967  0.8824 -1.3132  3.9047
    4NME    CH3   29  10.692  15.455  14.907  0.3974 -0.3213 -0.3686
    4NME   HH31   30  10.605  15.485  14.966  0.2228  0.2236 -0.8902
    4NME   HH32   31  10.720  15.534  14.838  0.6083  1.0532  1.2243
    4NME   HH33   32  10.667  15.365  14.851 -1.2017  0.4831 -1.0005
  20.99041  20.99041  20.99041
