Title
  129
    1AIB    CAY    1  19.815  20.889  20.405 -0.0864  0.4200 -0.0092
    1AIB    HY1    2  19.820  20.992  20.363 -1.2067  1.4555  2.2144
    1AIB    HY2    3  19.717  20.848  20.372  1.5166 -1.2799 -3.0427
    1AIB    HY3    4  19.888  20.819  20.359 -0.5589 -0.1571  0.0944
    1AIB     CY    5  19.831  20.899  20.548  0.2171 -0.1555 -0.3572
    1AIB     OY    6  19.797  20.807  20.624  0.6543 -0.4452  0.4273
    1AIB      N    7  19.872  21.016  20.601  0.4009 -0.0022  0.0730
    1AIB     HN    8  19.891  21.091  20.539  0.9790  1.8630  2.3336
    1AIB     CA    9  19.900  21.057  20.735 -0.4623 -0.3807 -0.0339
    1AIB    CB1   10  19.764  21.099  20.794 -0.3981 -0.3966 -0.0813
    1AIB   HB11   11  19.796  21.164  20.878  0.2328 -0.1497 -0.5080
    1AIB   HB12   12  19.701  21.008  20.806  2.2126 -2.4462 -0.8510
    1AIB   HB13   13  19.711  21.173  20.730 -0.3110 -0.6739 -0.4705
    1AIB    CB2   14  19.988  21.186  20.724 -0.1802  0.0687 -0.4463
    1AIB   HB21   15  20.083  21.154  20.676 -0.2381 -0.7619 -0.0182
    1AIB   HB22   16  20.010  21.226  20.826 -0.3769  1.9181 -1.0729
    1AIB   HB23   17  19.933  21.264  20.667  0.4913  2.0244  1.4622
    1AIB      C   18  19.973  20.960  20.834  0.5107 -0.1971  0.4691
    1AIB      O   19  20.067  20.898  20.777 -0.1680  0.2074 -0.2654
    2AIB      N   20  19.928  20.939  20.961  0.3060  0.2200 -0.1639
    2AIB     HN   21  19.851  20.988  21.002 -1.0719 -0.9073 -1.3683
    2AIB     CA   22  19.977  20.839  21.057 -0.3088  0.2296  1.1865
    2AIB    CB1   23  19.867  20.802  21.157  0.3984  0.2372  0.2006
    2AIB   HB11   24  19.797  20.738  21.098 -0.6445  2.3808 -0.9978
    2AIB   HB12   25  19.805  20.885  21.199  1.0762 -0.2522  2.2779
    2AIB   HB13   26  19.905  20.741  21.242 -0.3257  0.8684  0.9895
    2AIB    CB2   27  20.087  20.913  21.136  0.4727 -0.5435 -0.1687
    2AIB   HB21   28  20.137  20.864  21.221 -0.8390  0.5598  1.3036
    2AIB   HB22   29  20.051  21.004  21.188  1.9681 -0.1773  0.2630
    2AIB   HB23   30  20.166  20.948  21.066  3.0876 -0.0646  2.8530
    2AIB      C   31  20.030  20.708  20.994 -0.5405  0.2989  0.3800
    2AIB      O   32  20.143  20.665  21.013  0.4014 -0.1053  0.1974
    3AIB      N   33  19.935  20.644  20.922  0.0610  0.2022  0.4736
    3AIB     HN   34  19.857  20.696  20.888  0.7505  1.1933  0.3802
    3AIB     CA   35  19.955  20.507  20.874 -0.3570  0.0143 -0.3014
    3AIB    CB1   36  19.832  20.484  20.788  0.3589 -0.0152 -0.0307
    3AIB   HB11   37  19.739  20.480  20.850 -0.5943  0.0102 -1.4253
    3AIB   HB12   38  19.830  20.387  20.736 -0.9244 -0.8901  1.5374
    3AIB   HB13   39  19.827  20.569  20.716  1.2460 -2.1168 -2.7096
    3AIB    CB2   40  19.962  20.404  20.996  0.2044 -0.4252  0.7640
    3AIB   HB21   41  19.869  20.417  21.056 -0.7627  0.5287 -0.8623
    3AIB   HB22   42  20.054  20.434  21.051  0.0769 -0.1659  0.8354
    3AIB   HB23   43  19.974  20.296  20.973 -0.4860 -0.4915  0.7151
    3AIB      C   44  20.082  20.490  20.790  0.4884  0.5238  0.4431
    3AIB      O   45  20.161  20.391  20.799 -0.0519  0.1457 -0.2484
    4AIB      N   46  20.093  20.584  20.699 -0.1703 -0.3722  0.0370
    4AIB     HN   47  20.018  20.650  20.698 -2.5180 -2.8469 -0.3955
    4AIB     CA   48  20.188  20.600  20.592 -1.0762 -0.6284 -0.1099
    4AIB    CB1   49  20.150  20.729  20.512 -0.1448  0.4195 -0.3098
    4AIB   HB11   50  20.040  20.732  20.504 -0.4354 -2.4149  1.2132
    4AIB   HB12   51  20.218  20.735  20.424  0.1701  1.0513 -0.0309
    4AIB   HB13   52  20.173  20.822  20.568  0.5826 -0.1114  0.3254
    4AIB    CB2   53  20.179  20.477  20.493  0.3952 -0.1635  0.0095
    4AIB   HB21   54  20.200  20.383  20.549 -0.1749 -0.8200 -0.8637
    4AIB   HB22   55  20.254  20.479  20.411  1.1066  0.6487  0.6465
    4AIB   HB23   56  20.083  20.470  20.438  1.0448  0.3546 -1.2199
    4AIB      C   57  20.332  20.617  20.651 -0.0350 -0.1221 -0.6936
    4AIB      O   58  20.428  20.543  20.626 -0.3422 -0.9590  0.0157
    5AIB      N   59  20.339  20.708  20.748 -0.1634  0.0307  0.0356
    5AIB     HN   60  20.250  20.749  20.766 -0.6031  0.2010 -2.1783
    5AIB     CA   61  20.457  20.759  20.810 -0.0763 -0.0802  0.3568
    5AIB    CB1   62  20.421  20.870  20.905  0.1417 -0.2295  0.0011
    5AIB   HB11   63  20.502  20.928  20.955  0.5555  0.5749 -1.5355
    5AIB   HB12   64  20.342  20.830  20.971  0.4194 -1.4007 -0.3490
    5AIB   HB13   65  20.380  20.954  20.844  2.2312 -0.5071 -1.9251
    5AIB    CB2   66  20.553  20.819  20.704  0.3333 -0.7359 -0.4715
    5AIB   HB21   67  20.511  20.909  20.654 -1.4745  0.3792  2.8131
    5AIB   HB22   68  20.581  20.742  20.628  0.4377  0.4810 -1.7291
    5AIB   HB23   69  20.639  20.864  20.757  0.1348 -0.0992 -0.6761
    5AIB      C   70  20.519  20.651  20.902  0.1594 -0.5176  0.0311
    5AIB      O   71  20.636  20.624  20.892 -0.0973  0.1159  0.6337
    6AIB      N   72  20.438  20.588  20.996  0.0237 -0.7010 -0.7493
    6AIB     HN   73  20.344  20.616  21.013  0.5360  0.2789  0.6440
    6AIB     CA   74  20.477  20.472  21.075  0.0460 -0.5579 -0.3732
    6AIB    CB1   75  20.353  20.419  21.141  0.1499 -0.1266  0.0850
    6AIB   HB11   76  20.305  20.500  21.200 -0.9511 -0.4489 -0.3500
    6AIB   HB12   77  20.371  20.325  21.198  0.0682 -0.4046 -0.3440
    6AIB   HB13   78  20.281  20.392  21.062 -0.7378 -1.1019  1.1835
    6AIB    CB2   79  20.581  20.496  21.183  0.2894  0.1517  0.0298
    6AIB   HB21   80  20.599  20.409  21.249  0.4632  1.8791  2.3788
    6AIB   HB22   81  20.536  20.578  21.244 -0.7383 -1.7152  1.8857
    6AIB   HB23   82  20.678  20.530  21.142  0.7768 -3.0666 -1.7636
    6AIB      C   83  20.532  20.353  20.987 -0.8007  0.1054 -0.5274
    6AIB      O   84  20.643  20.305  21.001  0.4878 -0.1323 -0.6914
    7AIB      N   85  20.456  20.305  20.886 -0.3732 -0.4346  0.1239
    7AIB     HN   86  20.369  20.349  20.864 -0.1248 -0.9819 -2.2038
    7AIB     CA   87  20.498  20.194  20.798  0.6250 -1.1976 -0.0761
    7AIB    CB1   88  20.375  20.166  20.706 -0.7119  0.0297 -0.4498
    7AIB   HB11   89  20.412  20.107  20.620 -0.5542 -2.6974  1.3391
    7AIB   HB12   90  20.328  20.263  20.678 -0.4184  0.3192  0.0377
    7AIB   HB13   91  20.301  20.101  20.758  1.0596 -0.4886  1.5934
    7AIB    CB2   92  20.508  20.066  20.885 -0.4363  0.2340  0.5374
    7AIB   HB21   93  20.604  20.074  20.942  0.3702 -0.4146 -0.6736
    7AIB   HB22   94  20.520  19.980  20.817  2.0864 -0.8609  2.1619
    7AIB   HB23   95  20.426  20.056  20.959  0.3095  0.4034  1.4138
    7AIB      C   96  20.630  20.223  20.720  0.7794  0.2248 -0.2468
    7AIB      O   97  20.713  20.134  20.700  0.2366 -0.0312  0.2574
    8AIB      N   98  20.653  20.350  20.680 -0.4790 -0.2810  0.2378
    8AIB     HN   99  20.577  20.412  20.696 -1.2383 -1.2195  0.3073
    8AIB     CA  100  20.763  20.385  20.592 -0.1677  0.5454  0.5887
    8AIB    CB1  101  20.767  20.529  20.553 -0.2769  0.8293  0.5584
    8AIB   HB11  102  20.797  20.593  20.639  1.1892 -0.2405  0.8856
    8AIB   HB12  103  20.664  20.546  20.515 -0.8376 -0.0253  1.6586
    8AIB   HB13  104  20.832  20.544  20.464 -2.9153 -1.8164 -2.0515
    8AIB    CB2  105  20.768  20.298  20.464 -0.6706 -0.1563 -0.4849
    8AIB   HB21  106  20.673  20.293  20.408 -1.3643 -0.8515  0.6999
    8AIB   HB22  107  20.798  20.192  20.482  1.5870  0.5468  0.1849
    8AIB   HB23  108  20.844  20.337  20.393  0.3333 -1.4082 -0.1491
    8AIB      C  109  20.896  20.362  20.666  0.9263  0.2426  0.4533
    8AIB      O  110  20.986  20.304  20.603  0.6650 -0.0101 -0.9730
    9AIB      N  111  20.891  20.388  20.794 -0.2215 -0.0108  0.2592
    9AIB     HN  112  20.800  20.405  20.830 -0.5175  0.7857 -0.8529
    9AIB     CA  113  21.008  20.384  20.886  0.1695  0.2340  0.2207
    9AIB    CB1  114  20.975  20.450  21.022  0.3944  0.2593  0.3502
    9AIB   HB11  115  20.961  20.559  21.007  2.4723  0.4060 -0.9594
    9AIB   HB12  116  21.056  20.445  21.098 -0.0227  1.0273  0.8582
    9AIB   HB13  117  20.880  20.411  21.063  1.2293 -0.4013  1.7628
    9AIB    CB2  118  21.136  20.456  20.830  0.1238 -0.1656  0.1493
    9AIB   HB21  119  21.104  20.561  20.812 -1.2300 -0.1310  2.4535
    9AIB   HB22  120  21.176  20.402  20.741  1.3249 -3.1197  2.3234
    9AIB   HB23  121  21.215  20.448  20.908  0.4563  0.7797 -0.0660
    9AIB      C  122  21.048  20.241  20.927 -0.0358  0.3710 -0.0113
    9AIB      O  123  21.157  20.209  20.976 -0.3685 -0.2349 -0.3818
    9AIB     NT  124  20.952  20.149  20.925 -0.5925 -0.2915 -0.1333
    9AIB    HNT  125  20.863  20.170  20.884 -1.0322 -1.3305  0.2584
    9AIB    CAT  126  20.969  20.013  20.975 -1.1466 -0.8711 -0.1594
    9AIB    HT1  127  20.945  19.954  20.884  0.5776 -0.5749 -0.8394
    9AIB    HT2  128  20.895  19.989  21.055 -0.1725 -0.9004  0.7614
    9AIB    HT3  129  21.070  20.000  21.018 -0.9794  0.6254 -0.0287
  42.09246  42.09246  42.09246
