Protein
   42
    1ACE   HH31    1   0.518  13.818  12.087  1.1025 -1.3799 -0.3412
    1ACE    CH3    2   0.464  13.758  12.014 -0.3394  0.0951 -0.5305
    1ACE   HH32    3   0.490  13.655  12.036  1.0718  0.9050  2.2016
    1ACE   HH33    4   0.505  13.783  11.916 -0.0253  1.1361 -0.1439
    1ACE      C    5   0.317  13.770  12.003  0.3135  0.0746 -0.4133
    1ACE      O    6   0.244  13.672  11.983 -0.0199 -0.4625 -0.1340
    2ALA      N    7   0.268  13.892  12.010  0.4353 -0.3889 -0.0447
    2ALA      H    8   0.328  13.973  12.025  0.1053 -0.2831  0.7761
    2ALA     CA    9   0.123  13.929  12.017  0.3372  0.5541 -0.1289
    2ALA     HA   10   0.086  13.869  12.100  1.5762  1.8349  1.4024
    2ALA     CB   11   0.109  14.075  12.063 -0.0207  0.2989  0.0104
    2ALA    HB1   12   0.007  14.080  12.101 -0.6558 -1.5278 -1.2916
    2ALA    HB2   13   0.173  14.099  12.148 -0.1506 -0.2842  0.2823
    2ALA    HB3   14   0.116  14.144  11.979 -0.6957 -0.5220 -0.7457
    2ALA      C   15   0.065  13.895  11.877  0.3829  0.3393 -0.1811
    2ALA      O   16   0.114  13.943  11.775  0.0098  0.3656  0.2143
    3ALA      N   17  -0.041  13.818  11.864  0.8468  0.1900 -0.2022
    3ALA      H   18  -0.053  13.768  11.777 -1.2651 -1.5146  0.9938
    3ALA     CA   19  -0.141  13.793  11.967  1.0691  0.3621  0.1191
    3ALA     HA   20  -0.142  13.872  12.041  1.4126 -1.0242  1.6684
    3ALA     CB   21  -0.274  13.776  11.896 -0.0628  0.2364 -0.3158
    3ALA    HB1   22  -0.266  13.680  11.844  1.1810 -0.8573  1.7560
    3ALA    HB2   23  -0.362  13.769  11.961  0.7264 -0.7512  0.6797
    3ALA    HB3   24  -0.280  13.845  11.812 -1.7631  2.2608  1.3488
    3ALA      C   25  -0.127  13.665  12.059 -0.2098 -0.5875  0.8740
    3ALA      O   26  -0.216  13.639  12.135  0.3179  0.6527  0.0129
    4ALA      N   27  -0.017  13.585  12.042 -0.2989  0.0508  0.6155
    4ALA      H   28   0.056  13.617  11.980 -1.2135  0.4828 -0.2856
    4ALA     CA   29   0.033  13.479  12.135  0.2186  0.1400 -0.2696
    4ALA     HA   30   0.133  13.464  12.095 -0.0956  1.4778 -1.6890
    4ALA     CB   31   0.035  13.525  12.284  0.1844 -0.2379 -0.0741
    4ALA    HB1   32  -0.069  13.517  12.318  0.4549  1.1722  1.2692
    4ALA    HB2   33   0.106  13.469  12.344  0.8273  0.5926 -0.0368
    4ALA    HB3   34   0.067  13.629  12.284  1.3297 -0.5764 -0.5227
    4ALA      C   35  -0.043  13.344  12.134  0.4893  0.0695  0.8681
    4ALA      O   36   0.014  13.240  12.164 -0.3058  0.3894 -0.5760
    5NME      N   37  -0.168  13.342  12.085 -0.0510 -0.6139 -0.1215
    5NME      H   38  -0.210  13.434  12.084  2.9048  0.8637  0.6771
    5NME    CH3   39  -0.243  13.223  12.055 -0.0618  0.3207 -0.3155
    5NME   HH31   40  -0.255  13.158  12.142 -0.6978 -1.0811 -1.4242
    5NME   HH32   41  -0.345  13.245  12.023 -0.0536  0.9850  0.1047
    5NME   HH33   42  -0.195  13.167  11.975 -0.2474 -1.1819  0.5808
  20.91516  20.91516  20.91516
