Protein
   32
    1ACE   HH31    1  15.028  12.887   8.234  0.2548  0.2253  0.9949
    1ACE    CH3    2  15.131  12.909   8.206  0.1577 -0.0497  0.3880
    1ACE   HH32    3  15.124  12.985   8.128 -1.5079  0.0669  0.6184
    1ACE   HH33    4  15.189  12.827   8.165  3.4848  1.7994  1.0225
    1ACE      C    5  15.215  12.951   8.322 -0.3816  0.2379  0.1718
    1ACE      O    6  15.244  12.877   8.414 -0.1200  0.4059  0.4813
    2ALA      N    7  15.242  13.083   8.331 -0.4800  0.7213 -0.0987
    2ALA      H    8  15.195  13.135   8.258 -1.0363 -1.4471 -1.4244
    2ALA     CA    9  15.343  13.156   8.405 -0.1767 -0.3773  0.9111
    2ALA     HA   10  15.439  13.104   8.405 -0.7476 -1.4692  0.6552
    2ALA     CB   11  15.365  13.290   8.322 -0.2977 -0.0730  0.3493
    2ALA    HB1   12  15.449  13.345   8.365 -1.6451  0.7365  2.0609
    2ALA    HB2   13  15.399  13.258   8.224  0.2561 -1.6206  1.0037
    2ALA    HB3   14  15.272  13.347   8.314  0.1657  0.4465 -1.7119
    2ALA      C   15  15.300  13.189   8.549  0.7814  0.4799 -0.3329
    2ALA      O   16  15.349  13.283   8.609 -0.1263 -0.0035 -0.3318
    3ALA      N   17  15.213  13.109   8.610 -0.4057 -0.3750 -0.1604
    3ALA      H   18  15.176  13.031   8.556 -0.2665 -0.3172 -0.3397
    3ALA     CA   19  15.137  13.151   8.733 -0.7837 -1.0126  0.8550
    3ALA     HA   20  15.061  13.227   8.721 -0.1314 -0.3094  1.0426
    3ALA     CB   21  15.062  13.020   8.772  0.4037 -0.3696 -0.7942
    3ALA    HB1   22  14.992  12.986   8.696  0.7212  0.4085 -1.4532
    3ALA    HB2   23  15.143  12.950   8.796  0.4225  0.0336  0.3818
    3ALA    HB3   24  14.998  13.025   8.860  1.0450 -1.1741 -0.2592
    3ALA      C   25  15.226  13.183   8.851 -1.0081 -0.3136  0.2402
    3ALA      O   26  15.164  13.239   8.943 -0.3345 -0.4207  0.2887
    4NME      N   27  15.354  13.138   8.869  0.9732 -0.0607 -1.0753
    4NME      H   28  15.392  13.075   8.800  1.5997 -1.3490  0.4022
    4NME    CH3   29  15.433  13.178   8.990  0.3055  0.2269 -0.3913
    4NME   HH31   30  15.538  13.149   8.981  0.7963  2.1195 -1.3692
    4NME   HH32   31  15.435  13.287   8.993  0.0726  0.3704 -3.1830
    4NME   HH33   32  15.386  13.157   9.086 -1.7162  2.8529 -0.6979
  20.99041  20.99041  20.99041
