Protein
   42
    1ACE   HH31    1   7.668  11.140  12.402 -0.0431 -0.5454 -0.1742
    1ACE    CH3    2   7.737  11.142  12.318 -0.1620 -0.7771 -0.2821
    1ACE   HH32    3   7.674  11.128  12.230 -0.7805 -3.5493  0.5066
    1ACE   HH33    4   7.821  11.072  12.320  0.5653  0.0090 -1.3916
    1ACE      C    5   7.786  11.285  12.315 -0.0678 -0.2805  0.2637
    1ACE      O    6   7.909  11.297  12.319  0.0346  0.2732  0.2954
    2ALA      N    7   7.693  11.378  12.312 -0.3509 -0.0867 -0.6936
    2ALA      H    8   7.598  11.349  12.330  0.2894 -1.5489  0.6508
    2ALA     CA    9   7.715  11.521  12.297  0.0081  0.7725  0.4993
    2ALA     HA   10   7.613  11.556  12.281 -0.0436  0.3339 -0.1591
    2ALA     CB   11   7.758  11.585  12.430 -0.5032 -0.6421  0.2629
    2ALA    HB1   12   7.723  11.689  12.434  0.4650 -0.1379 -2.3672
    2ALA    HB2   13   7.714  11.537  12.518  1.2202  0.0346  1.5646
    2ALA    HB3   14   7.864  11.579  12.453 -0.1480 -1.2606 -1.4128
    2ALA      C   15   7.799  11.567  12.173 -0.1646 -0.1457 -0.3253
    2ALA      O   16   7.777  11.677  12.127 -0.6435 -0.5919 -0.0034
    3ALA      N   17   7.892  11.486  12.120 -0.0767  0.0208 -0.5002
    3ALA      H   18   7.902  11.396  12.163 -2.1230 -0.3911 -0.7757
    3ALA     CA   19   7.981  11.518  12.008 -0.1889  0.4436  0.0873
    3ALA     HA   20   7.926  11.570  11.929  3.1850 -0.6721 -3.3260
    3ALA     CB   21   8.088  11.607  12.065 -0.1397  0.4586  0.0953
    3ALA    HB1   22   8.168  11.616  11.991 -0.0856 -0.8641 -0.0430
    3ALA    HB2   23   8.043  11.700  12.100 -0.0435  0.3271  0.5793
    3ALA    HB3   24   8.121  11.553  12.153 -0.1125  0.8462  0.3219
    3ALA      C   25   8.042  11.385  11.951 -0.1470 -0.8135  0.2312
    3ALA      O   26   7.988  11.276  11.971  0.1895 -0.0883  0.1472
    4ALA      N   27   8.160  11.399  11.891 -0.1485  0.2526  0.0350
    4ALA      H   28   8.195  11.492  11.876 -0.6148  0.3757 -0.3204
    4ALA     CA   29   8.238  11.283  11.845 -0.0503 -0.0276  0.1534
    4ALA     HA   30   8.175  11.214  11.789  1.4677 -0.3572 -1.1985
    4ALA     CB   31   8.354  11.331  11.754 -0.4539  0.4224  0.4244
    4ALA    HB1   32   8.323  11.413  11.688  2.0002  0.5423 -0.6888
    4ALA    HB2   33   8.434  11.368  11.818 -2.0792  0.8771  2.3059
    4ALA    HB3   34   8.396  11.249  11.697  0.9837 -0.6031  2.7911
    4ALA      C   35   8.296  11.192  11.962 -0.4302  0.1458 -0.3790
    4ALA      O   36   8.415  11.166  11.973  0.2957 -0.6084  0.2424
    5NME      N   37   8.213  11.148  12.058 -0.1168 -0.3223 -0.1461
    5NME      H   38   8.113  11.164  12.051 -0.0723  1.6476  2.0917
    5NME    CH3   39   8.256  11.100  12.188  0.3816 -0.1811  1.0466
    5NME   HH31   40   8.305  11.003  12.181 -0.8776 -0.7893  0.0929
    5NME   HH32   41   8.320  11.176  12.233  2.6872 -1.6067  0.3146
    5NME   HH33   42   8.167  11.097  12.251 -0.9713  2.0613 -0.6122
  20.91516  20.91516  20.91516
