Protein
   42
    1ACE   HH31    1  11.085  10.448  11.338  1.5845  0.9107  1.3804
    1ACE    CH3    2  11.026  10.519  11.396  0.4507  0.5310  0.7241
    1ACE   HH32    3  10.919  10.503  11.382  0.9453 -2.7421 -0.3093
    1ACE   HH33    4  11.044  10.619  11.357 -1.3070  0.2021 -1.0913
    1ACE      C    5  11.074  10.505  11.541 -1.3693 -0.0292 -0.7087
    1ACE      O    6  11.155  10.415  11.572 -0.2989  0.5313  0.0584
    2ALA      N    7  11.015  10.584  11.631  0.0255 -0.1828  0.0432
    2ALA      H    8  10.941  10.646  11.601 -0.1036 -0.8077 -0.9467
    2ALA     CA    9  11.035  10.575  11.779 -0.1406  0.4956  0.3060
    2ALA     HA   10  11.140  10.594  11.804  0.4969 -0.9493 -1.0951
    2ALA     CB   11  10.952  10.687  11.842 -0.4754  0.1202 -0.0553
    2ALA    HB1   12  10.983  10.702  11.945  0.2852 -0.5831 -0.1711
    2ALA    HB2   13  10.965  10.783  11.792  1.0162 -0.8909 -1.6995
    2ALA    HB3   14  10.846  10.663  11.849 -0.3532 -0.4328 -0.0689
    2ALA      C   15  10.991  10.440  11.849 -0.3329  0.0776 -0.2959
    2ALA      O   16  10.878  10.426  11.884  0.0979 -0.1166  0.1921
    3ALA      N   17  11.084  10.344  11.867  1.1400 -0.3210  0.1176
    3ALA      H   18  11.038  10.267  11.914 -0.8990  2.1650  2.5423
    3ALA     CA   19  11.223  10.356  11.872  0.2988  0.6194 -0.7612
    3ALA     HA   20  11.254  10.433  11.801 -0.0173  1.5601  0.1005
    3ALA     CB   21  11.255  10.401  12.012 -0.0885 -0.0521  0.8359
    3ALA    HB1   22  11.363  10.410  12.022 -0.0884 -0.4532  1.2904
    3ALA    HB2   23  11.207  10.493  12.045  0.6113  0.7421 -0.3223
    3ALA    HB3   24  11.237  10.321  12.085 -0.2214 -0.3425  0.4910
    3ALA      C   25  11.292  10.222  11.837  0.6112 -0.3135  0.0917
    3ALA      O   26  11.411  10.206  11.864  0.2340 -0.9620  0.4334
    4ALA      N   27  11.217  10.136  11.765 -0.4530  0.1099  0.1119
    4ALA      H   28  11.125  10.161  11.731 -0.1933  0.6429 -0.2144
    4ALA     CA   29  11.263  10.014  11.701  0.3075  0.0748 -0.1633
    4ALA     HA   30  11.371  10.023  11.687  0.7216 -1.2283  1.8137
    4ALA     CB   31  11.249   9.900  11.803 -0.4233  0.1054  0.2532
    4ALA    HB1   32  11.143   9.888  11.826 -0.1625 -1.0828  0.9596
    4ALA    HB2   33  11.278   9.808  11.752  0.2914  1.4537 -1.8893
    4ALA    HB3   34  11.317   9.914  11.887  0.0736 -1.6066  0.1839
    4ALA      C   35  11.197   9.992  11.562 -0.0385 -0.0811 -0.1912
    4ALA      O   36  11.164   9.883  11.527 -0.1546  0.2133 -0.2729
    5NME      N   37  11.177  10.105  11.489  0.5974 -0.0567  0.4118
    5NME      H   38  11.224  10.186  11.525 -0.4719 -0.2485  2.4314
    5NME    CH3   39  11.102  10.117  11.360  0.7944  0.0012  0.4960
    5NME   HH31   40  11.162  10.121  11.269 -0.0783 -1.3124 -0.1750
    5NME   HH32   41  11.039  10.028  11.350 -3.0161  2.5342 -0.0178
    5NME   HH33   42  11.038  10.205  11.365 -0.1240 -0.6302  0.3159
  20.91516  20.91516  20.91516
