Protein
   42
    1ACE   HH31    1   6.589  16.757   9.762 -1.7275 -0.5080  0.0288
    1ACE    CH3    2   6.668  16.733   9.690 -0.9856 -0.0933  0.6746
    1ACE   HH32    3   6.709  16.813   9.629  0.4533 -2.4233 -1.5939
    1ACE   HH33    4   6.641  16.657   9.617  3.2354  1.9733 -3.5210
    1ACE      C    5   6.782  16.691   9.785  0.0462  0.0785  0.0575
    1ACE      O    6   6.856  16.778   9.837  0.2043  0.4807  0.0299
    2ALA      N    7   6.776  16.558   9.808  0.0088  0.0159  0.2632
    2ALA      H    8   6.699  16.513   9.761  0.1026 -0.1549  0.2677
    2ALA     CA    9   6.851  16.479   9.903  0.7101  0.0357  0.3882
    2ALA     HA   10   6.851  16.378   9.861  1.0514 -0.3490  1.2844
    2ALA     CB   11   6.994  16.529   9.914 -0.6711  0.0943  0.3149
    2ALA    HB1   12   7.040  16.552   9.818  0.5863 -0.3779  0.7809
    2ALA    HB2   13   7.002  16.621   9.972  1.0880 -0.6093  1.2603
    2ALA    HB3   14   7.064  16.456   9.956 -0.8603  0.0767  0.6217
    2ALA      C   15   6.773  16.466  10.035 -0.1973  0.2779  0.0273
    2ALA      O   16   6.707  16.557  10.086 -0.7967 -0.8729 -0.2674
    3ALA      N   17   6.768  16.349  10.098 -0.3976  0.0144  0.1732
    3ALA      H   18   6.738  16.350  10.194 -0.6959 -0.5010  0.0919
    3ALA     CA   19   6.778  16.210  10.044 -0.1578  0.6976 -0.2162
    3ALA     HA   20   6.881  16.178  10.024  0.4506  1.8388  0.9366
    3ALA     CB   21   6.722  16.107  10.144 -0.4818 -0.7037  0.6566
    3ALA    HB1   22   6.759  16.006  10.125 -0.4877 -0.8573  1.4066
    3ALA    HB2   23   6.768  16.128  10.241  1.0639  0.9450 -0.3669
    3ALA    HB3   24   6.614  16.096  10.133 -0.5513  1.4637 -1.7922
    3ALA      C   25   6.701  16.185   9.913 -0.1271  0.0815 -0.5572
    3ALA      O   26   6.752  16.136   9.810  0.2106 -0.0351  0.1131
    4ALA      N   27   6.579  16.236   9.910  0.7303  0.2589  0.1311
    4ALA      H   28   6.546  16.288   9.990 -1.5771  0.3472 -0.8177
    4ALA     CA   29   6.474  16.235   9.809  0.5756  0.6156  0.3218
    4ALA     HA   30   6.439  16.132   9.799  2.0323  0.1415 -0.1679
    4ALA     CB   31   6.365  16.330   9.861  0.7156  0.6096 -0.3788
    4ALA    HB1   32   6.294  16.336   9.779 -0.8342 -1.3618  0.7144
    4ALA    HB2   33   6.310  16.284   9.943  0.5666  1.3291 -0.0704
    4ALA    HB3   34   6.412  16.425   9.888  0.8952  0.6856 -0.9524
    4ALA      C   35   6.532  16.291   9.678 -0.2996  0.6291 -0.0447
    4ALA      O   36   6.589  16.402   9.671 -0.2078  0.3353 -0.1837
    5NME      N   37   6.526  16.211   9.570  0.0812 -0.8071  0.4270
    5NME      H   38   6.496  16.117   9.587  1.7651 -1.2083  1.5019
    5NME    CH3   39   6.564  16.255   9.436 -0.0921  0.7216 -0.2387
    5NME   HH31   40   6.549  16.176   9.362  0.7539 -0.0799  0.4137
    5NME   HH32   41   6.521  16.353   9.414 -0.7714  0.4014 -0.3844
    5NME   HH33   42   6.671  16.272   9.444  0.1414 -1.2090  1.7866
  20.91516  20.91516  20.91516
