Protein
   32
    1ACE   HH31    1  11.987   8.660   5.688 -0.1175  1.4185 -0.2645
    1ACE    CH3    2  11.905   8.619   5.747  0.7403  0.3551  0.2425
    1ACE   HH32    3  11.872   8.530   5.695  1.5374 -0.9548  1.8720
    1ACE   HH33    4  11.833   8.700   5.739 -0.0159 -0.2213  1.0431
    1ACE      C    5  11.939   8.597   5.890  0.2172  0.8372  0.1338
    1ACE      O    6  11.868   8.652   5.974 -0.1314  0.1309  0.0067
    2ALA      N    7  12.040   8.511   5.911  0.4551 -0.0615  0.4369
    2ALA      H    8  12.096   8.482   5.832  0.9033  1.4598  0.1488
    2ALA     CA    9  12.097   8.464   6.037  0.0677 -0.5508 -0.0157
    2ALA     HA   10  12.146   8.368   6.022 -1.0853 -1.1387 -0.2116
    2ALA     CB   11  12.205   8.573   6.076  0.0074 -0.0859  0.3005
    2ALA    HB1   12  12.236   8.561   6.180 -1.3791  1.9760  1.0130
    2ALA    HB2   13  12.289   8.565   6.007 -0.1083 -0.3019  0.1859
    2ALA    HB3   14  12.161   8.672   6.071 -1.7533 -0.7186  1.6930
    2ALA      C   15  11.979   8.449   6.140 -0.2667 -0.1978 -0.2610
    2ALA      O   16  11.961   8.524   6.237 -0.5451 -0.0726  0.3068
    3ALA      N   17  11.930   8.322   6.141 -0.1398  0.3873  0.4041
    3ALA      H   18  11.978   8.256   6.082 -0.7179 -0.5122  0.9306
    3ALA     CA   19  11.806   8.274   6.212  0.7380 -0.0058  0.5586
    3ALA     HA   20  11.777   8.175   6.176  0.2790 -0.2538  1.5786
    3ALA     CB   21  11.830   8.260   6.359 -0.1266 -0.3322  0.1490
    3ALA    HB1   22  11.758   8.195   6.410  0.2906  0.8207  2.2985
    3ALA    HB2   23  11.927   8.212   6.365 -0.0966 -0.0876  1.8819
    3ALA    HB3   24  11.831   8.359   6.404 -2.7101 -1.0386  2.0177
    3ALA      C   25  11.675   8.357   6.188 -0.8383  0.3324  0.4517
    3ALA      O   26  11.568   8.300   6.166 -0.0756  0.7710 -0.1960
    4NME      N   27  11.681   8.495   6.190  0.0058  0.6503  0.2005
    4NME      H   28  11.768   8.542   6.211 -0.7268  2.3888 -0.4957
    4NME    CH3   29  11.574   8.585   6.173 -0.5344 -0.0970  0.3094
    4NME   HH31   30  11.486   8.535   6.134 -0.5736  0.1412  0.0908
    4NME   HH32   31  11.536   8.631   6.264 -1.5033 -2.4311  1.1479
    4NME   HH33   32  11.599   8.662   6.099  2.8132 -0.7702  0.5605
  20.99041  20.99041  20.99041
