Protein
   42
    1ACE   HH31    1  11.897  16.051  19.216  1.3733  3.0465  0.1759
    1ACE    CH3    2  11.811  16.072  19.279  0.5035 -0.0405  0.1907
    1ACE   HH32    3  11.731  16.106  19.213  0.3163 -1.7709 -0.5240
    1ACE   HH33    4  11.835  16.153  19.348 -0.4274  0.1108  0.3654
    1ACE      C    5  11.778  15.940  19.349 -0.9645 -0.9929  0.0650
    1ACE      O    6  11.763  15.836  19.290 -0.4428 -0.1093  0.7380
    2ALA      N    7  11.767  15.952  19.476 -0.6068  0.4947 -0.1557
    2ALA      H    8  11.743  16.041  19.518  1.0282  1.2029 -0.6491
    2ALA     CA    9  11.745  15.831  19.561 -0.1933 -1.0089  0.5101
    2ALA     HA   10  11.821  15.761  19.525  0.2799 -0.3423  0.1832
    2ALA     CB   11  11.769  15.867  19.705 -0.1994 -0.0294 -0.6311
    2ALA    HB1   12  11.858  15.930  19.705 -0.3809  0.2427 -1.4385
    2ALA    HB2   13  11.684  15.920  19.748  0.7278  2.0899 -1.2739
    2ALA    HB3   14  11.788  15.772  19.756 -0.5961 -0.4587 -1.2685
    2ALA      C   15  11.606  15.765  19.549 -0.9377 -0.5027 -0.4068
    2ALA      O   16  11.504  15.822  19.576 -0.3720 -0.3520  0.6417
    3ALA      N   17  11.590  15.636  19.508 -0.7040 -0.3052 -0.9465
    3ALA      H   18  11.496  15.601  19.520 -1.4828  1.6927 -0.8100
    3ALA     CA   19  11.695  15.535  19.467  0.7761 -0.0706 -0.5184
    3ALA     HA   20  11.782  15.598  19.446  0.6386  0.3925  0.2790
    3ALA     CB   21  11.727  15.438  19.579  0.0742 -0.3737 -0.2587
    3ALA    HB1   22  11.820  15.389  19.551  0.8468  1.8830 -1.8798
    3ALA    HB2   23  11.749  15.502  19.664 -0.4868  1.1136 -1.2104
    3ALA    HB3   24  11.641  15.375  19.601 -0.3677  0.8734  1.8471
    3ALA      C   25  11.647  15.478  19.328  0.1717 -0.5871 -0.5442
    3ALA      O   26  11.651  15.361  19.314  0.4475 -0.2744 -0.1253
    4ALA      N   27  11.598  15.572  19.243 -0.2834  0.7024 -0.0018
    4ALA      H   28  11.595  15.668  19.273 -0.1717  0.7692 -0.2032
    4ALA     CA   29  11.577  15.550  19.096  0.4380  0.0747 -0.3538
    4ALA     HA   30  11.557  15.445  19.075  1.6235  0.1765 -2.1639
    4ALA     CB   31  11.455  15.638  19.068 -0.3790 -0.1514  0.0618
    4ALA    HB1   32  11.472  15.745  19.078 -1.0454 -0.0450  0.1484
    4ALA    HB2   33  11.422  15.628  18.965  0.2813 -0.4875 -0.1154
    4ALA    HB3   34  11.368  15.608  19.127 -0.5395 -1.6614 -0.8894
    4ALA      C   35  11.687  15.598  19.003  0.3123  0.1675  1.0081
    4ALA      O   36  11.692  15.555  18.884 -0.2003 -0.1156  0.2700
    5NME      N   37  11.779  15.688  19.046 -0.0819  0.2770  0.7945
    5NME      H   38  11.769  15.714  19.143 -1.1576  2.0636  0.2435
    5NME    CH3   39  11.890  15.742  18.971  0.2170  0.2734  0.1044
    5NME   HH31   40  11.952  15.666  18.924  3.5840  1.4727  2.2381
    5NME   HH32   41  11.860  15.813  18.893 -3.6148 -0.2364  0.9297
    5NME   HH33   42  11.959  15.793  19.038  0.2076  1.2939 -0.6320
  20.91516  20.91516  20.91516
