Protein
   42
    1ACE   HH31    1  14.322   6.658  11.292  1.5069 -0.7316  1.0248
    1ACE    CH3    2  14.268   6.661  11.387 -0.0532 -0.3204  0.1658
    1ACE   HH32    3  14.180   6.723  11.370 -0.7783 -1.4143 -0.2064
    1ACE   HH33    4  14.335   6.710  11.457 -0.7745  1.2823 -0.2291
    1ACE      C    5  14.231   6.518  11.437  0.1483 -0.2608 -0.0869
    1ACE      O    6  14.300   6.427  11.409  0.5296 -0.4767 -0.3602
    2ALA      N    7  14.109   6.496  11.492  0.4019  0.0032  0.0421
    2ALA      H    8  14.059   6.576  11.528  1.9283  1.0654 -0.0656
    2ALA     CA    9  14.064   6.360  11.539 -0.0582  0.8411 -0.1502
    2ALA     HA   10  14.092   6.275  11.477  0.0167 -0.0612  1.0731
    2ALA     CB   11  14.133   6.334  11.675 -0.0217  0.5581  0.0965
    2ALA    HB1   12  14.125   6.423  11.738  2.7240  0.1791  1.0652
    2ALA    HB2   13  14.103   6.242  11.725  0.9898  0.0809 -0.1561
    2ALA    HB3   14  14.237   6.326  11.646 -0.2387  1.4434 -0.9869
    2ALA      C   15  13.912   6.362  11.573  0.4171 -0.6427  0.0901
    2ALA      O   16  13.847   6.468  11.596  0.0417  0.7779  0.0629
    3ALA      N   17  13.842   6.245  11.578 -0.3708  0.5721  0.6408
    3ALA      H   18  13.742   6.264  11.576 -0.8955 -1.8071 -0.0270
    3ALA     CA   19  13.888   6.106  11.566  0.0618 -0.4712  0.4809
    3ALA     HA   20  13.990   6.109  11.527 -0.3857  0.0362 -0.6785
    3ALA     CB   21  13.891   6.040  11.701  0.2447 -0.1682  1.0366
    3ALA    HB1   22  13.917   5.934  11.694 -1.1187 -0.6323  2.4585
    3ALA    HB2   23  13.957   6.091  11.772  0.4492  1.5131 -0.3054
    3ALA    HB3   24  13.787   6.040  11.733 -0.5026  0.6462 -1.1854
    3ALA      C   25  13.807   6.026  11.467  0.2771  0.3427  0.0262
    3ALA      O   26  13.686   6.057  11.445  0.1603  0.1404  0.7641
    4ALA      N   27  13.862   5.924  11.404  0.4278  1.2944  0.3279
    4ALA      H   28  13.960   5.907  11.423  0.4864  2.0887  0.7435
    4ALA     CA   29  13.802   5.822  11.314 -0.2164  0.3987 -0.1906
    4ALA     HA   30  13.889   5.764  11.285 -1.6460 -1.6192 -0.6776
    4ALA     CB   31  13.705   5.732  11.391 -0.3397  0.1493  0.3806
    4ALA    HB1   32  13.764   5.691  11.474 -0.4573  1.3914  1.0885
    4ALA    HB2   33  13.627   5.792  11.436 -0.6300 -1.3704  2.0111
    4ALA    HB3   34  13.661   5.653  11.329 -1.3846  1.0971 -0.1103
    4ALA      C   35  13.727   5.868  11.187  0.2531 -0.3512  0.0398
    4ALA      O   36  13.719   5.788  11.093 -0.3941  0.5443  0.0944
    5NME      N   37  13.674   5.990  11.172  0.1957  0.4055  0.1094
    5NME      H   38  13.672   6.058  11.247 -0.8046  2.3624 -1.6039
    5NME    CH3   39  13.583   6.021  11.068 -0.3320 -0.8546  0.5705
    5NME   HH31   40  13.502   6.088  11.100  0.5591  0.4525  0.1840
    5NME   HH32   41  13.618   6.072  10.978 -0.2315  1.5308  1.8801
    5NME   HH33   42  13.526   5.930  11.051 -3.0932  0.7737  0.6585
  20.91516  20.91516  20.91516
