Protein
   42
    1ACE   HH31    1  11.422   6.599  11.281  2.0092  1.3743 -1.3818
    1ACE    CH3    2  11.366   6.585  11.189 -0.0622 -0.2069  0.0351
    1ACE   HH32    3  11.410   6.504  11.132  0.3577 -0.9623  1.4039
    1ACE   HH33    4  11.357   6.677  11.130  2.2250  1.1058  1.5820
    1ACE      C    5  11.228   6.542  11.230  0.3650  0.2669 -0.0719
    1ACE      O    6  11.205   6.500  11.341 -0.0922 -0.1225  0.4075
    2ALA      N    7  11.136   6.567  11.143 -0.1439  0.3059 -0.2493
    2ALA      H    8  11.175   6.599  11.055  1.0351 -1.1157 -0.2756
    2ALA     CA    9  10.994   6.571  11.161  0.1175 -0.8003  0.2028
    2ALA     HA   10  10.944   6.597  11.068 -0.4776 -1.3078  0.3738
    2ALA     CB   11  10.946   6.423  11.181  0.7314 -0.5413 -0.0452
    2ALA    HB1   12  10.966   6.398  11.285  0.4112  0.3563  0.2527
    2ALA    HB2   13  10.837   6.416  11.169  0.8809 -2.2926 -0.5745
    2ALA    HB3   14  10.982   6.351  11.108 -2.7914 -0.3963 -2.1869
    2ALA      C   15  10.939   6.658  11.277 -0.8634 -0.0411  0.2228
    2ALA      O   16  10.847   6.739  11.249  0.2628  0.1400 -0.4010
    3ALA      N   17  10.986   6.645  11.402 -0.5620  0.2276  0.4559
    3ALA      H   18  11.074   6.598  11.418 -1.0485 -0.2346  2.0077
    3ALA     CA   19  10.928   6.686  11.528 -0.2336 -0.0611 -0.1381
    3ALA     HA   20  10.980   6.628  11.604 -1.3911 -0.2225  0.5527
    3ALA     CB   21  10.961   6.831  11.559  0.0696  0.2751 -0.0943
    3ALA    HB1   22  10.898   6.895  11.497 -1.9484 -2.5248 -1.1483
    3ALA    HB2   23  10.951   6.849  11.666  0.7018  1.3728 -0.2070
    3ALA    HB3   24  11.062   6.860  11.529 -0.0457  1.2650  0.4270
    3ALA      C   25  10.784   6.655  11.554 -0.0970  0.4156  0.6015
    3ALA      O   26  10.738   6.640  11.669 -0.3749  0.3337  0.3397
    4ALA      N   27  10.698   6.643  11.450  0.2827  0.0455  0.3601
    4ALA      H   28  10.739   6.651  11.358 -0.2767 -0.3857  0.0691
    4ALA     CA   29  10.550   6.612  11.451 -0.5915  1.3580  0.5234
    4ALA     HA   30  10.531   6.522  11.510 -0.8704 -0.4703 -2.2011
    4ALA     CB   31  10.478   6.720  11.525  0.2898 -0.5780  0.0384
    4ALA    HB1   32  10.494   6.721  11.633  0.1377  0.2713  0.0602
    4ALA    HB2   33  10.502   6.816  11.479 -1.3014 -0.7273 -1.1677
    4ALA    HB3   34  10.370   6.701  11.521 -0.1527  1.6618 -0.1260
    4ALA      C   35  10.493   6.609  11.311  0.3486 -0.9293 -0.0225
    4ALA      O   36  10.402   6.533  11.284 -0.3373  0.5604 -0.4026
    5NME      N   37  10.547   6.686  11.221  0.1656  0.1401 -0.4217
    5NME      H   38  10.616   6.756  11.243 -1.5934  1.5709  0.9154
    5NME    CH3   39  10.504   6.678  11.086 -0.0366  0.6377 -0.1057
    5NME   HH31   40  10.406   6.726  11.092 -0.6300 -0.7157  3.3838
    5NME   HH32   41  10.564   6.746  11.026  0.6843  0.9763  0.9727
    5NME   HH33   42  10.491   6.577  11.048 -0.4650  0.2102  1.1413
  20.91516  20.91516  20.91516
