Protein
   32
    1ACE   HH31    1  14.076  11.250   9.174  3.1073 -1.4796  2.0454
    1ACE    CH3    2  14.024  11.155   9.187  0.1727 -0.3053 -0.0101
    1ACE   HH32    3  13.940  11.174   9.253  1.0141  0.3333  0.9037
    1ACE   HH33    4  14.107  11.094   9.225  0.9349  1.7450  1.8332
    1ACE      C    5  13.990  11.108   9.046 -0.3112 -0.0928  0.0001
    1ACE      O    6  14.077  11.060   8.979 -0.1828 -0.5087 -0.5326
    2ALA      N    7  13.867  11.110   8.999 -0.0931 -0.3559 -0.2974
    2ALA      H    8  13.799  11.132   9.071  0.3071 -1.6580  0.5083
    2ALA     CA    9  13.821  11.052   8.875  0.6288 -0.0288  0.0738
    2ALA     HA   10  13.906  11.032   8.809  1.2446  0.4654  0.7136
    2ALA     CB   11  13.749  10.911   8.902  0.5802 -0.2687 -0.8756
    2ALA    HB1   12  13.736  10.857   8.808 -0.2203 -0.2709 -0.7690
    2ALA    HB2   13  13.823  10.852   8.957  1.5554  0.1998 -1.6471
    2ALA    HB3   14  13.651  10.915   8.948  0.2984  2.2563 -1.5254
    2ALA      C   15  13.722  11.132   8.793 -0.8285  0.7932 -0.7730
    2ALA      O   16  13.677  11.075   8.694  0.4613 -0.2927  0.0280
    3ALA      N   17  13.693  11.253   8.834  0.2411 -0.0891  0.2320
    3ALA      H   18  13.746  11.291   8.911  0.1089  2.0051 -0.6399
    3ALA     CA   19  13.609  11.347   8.762 -0.3869  0.5800  0.4123
    3ALA     HA   20  13.507  11.311   8.753  0.5391 -1.8032 -1.4928
    3ALA     CB   21  13.596  11.472   8.850 -0.0020 -0.2256  0.2292
    3ALA    HB1   22  13.552  11.451   8.947 -0.4603  3.5006  0.9911
    3ALA    HB2   23  13.697  11.515   8.848  0.1428 -0.5701 -0.5610
    3ALA    HB3   24  13.543  11.551   8.798 -1.2038 -0.6924  0.7254
    3ALA      C   25  13.651  11.381   8.612  0.2296 -0.1484  0.5349
    3ALA      O   26  13.618  11.492   8.569  0.3816  0.2263  0.3463
    4NME      N   27  13.729  11.299   8.539  0.2394  0.0965 -0.4427
    4NME      H   28  13.735  11.208   8.581 -1.2592 -0.4156 -1.2423
    4NME    CH3   29  13.767  11.329   8.399 -0.4864  1.0778 -0.7357
    4NME   HH31   30  13.674  11.337   8.342 -0.4870 -1.3353 -1.1806
    4NME   HH32   31  13.813  11.427   8.406  0.1589  0.8778 -1.9985
    4NME   HH33   32  13.834  11.248   8.371 -0.8622  0.4872  0.0221
  20.99041  20.99041  20.99041
