Protein
   42
    1ACE   HH31    1  13.410   7.001   4.901 -0.1973  0.6394 -0.1655
    1ACE    CH3    2  13.345   7.001   4.989  0.6525  0.7019  0.4672
    1ACE   HH32    3  13.242   6.979   4.964  0.5331  0.5902  1.0557
    1ACE   HH33    4  13.344   7.098   5.038  1.5135  0.4300  1.0400
    1ACE      C    5  13.394   6.894   5.079 -0.9437  0.4648  0.0269
    1ACE      O    6  13.469   6.930   5.171 -0.0586  0.5896 -0.2843
    2ALA      N    7  13.347   6.770   5.056 -0.3487 -0.0224 -0.0130
    2ALA      H    8  13.290   6.751   4.975  0.0139  0.3166 -0.3521
    2ALA     CA    9  13.361   6.672   5.153  0.4759 -0.4824 -0.3317
    2ALA     HA   10  13.390   6.717   5.249 -1.8033 -1.4696  0.8951
    2ALA     CB   11  13.223   6.610   5.174 -0.0031 -0.0140  0.0071
    2ALA    HB1   12  13.237   6.505   5.203  0.1225 -0.3334 -1.1438
    2ALA    HB2   13  13.174   6.648   5.263 -0.7168  1.4577 -0.9810
    2ALA    HB3   14  13.165   6.623   5.082  3.0532  1.5189 -1.8479
    2ALA      C   15  13.468   6.571   5.102  0.4330  0.5559  0.1983
    2ALA      O   16  13.442   6.502   5.008 -0.2170 -0.2332  0.1863
    3ALA      N   17  13.592   6.557   5.145  0.3740  0.3741 -0.1100
    3ALA      H   18  13.650   6.484   5.107 -0.4986 -0.8965  0.8911
    3ALA     CA   19  13.651   6.636   5.255  0.4584 -0.0530  0.6372
    3ALA     HA   20  13.599   6.732   5.253 -0.4393 -0.5328  0.7236
    3ALA     CB   21  13.619   6.572   5.393  0.3300 -0.2664  0.1929
    3ALA    HB1   22  13.645   6.644   5.470  0.4084  0.7515 -0.7532
    3ALA    HB2   23  13.510   6.559   5.396  0.4977 -2.5362 -1.2910
    3ALA    HB3   24  13.669   6.476   5.403 -0.7797 -1.2856 -2.9374
    3ALA      C   25  13.795   6.671   5.221 -0.4298 -0.5069  0.3791
    3ALA      O   26  13.872   6.600   5.167 -0.1598  0.0642  0.5071
    4ALA      N   27  13.828   6.793   5.256  0.4171  0.9305 -0.5375
    4ALA      H   28  13.772   6.845   5.322  2.2396  2.8711 -0.4475
    4ALA     CA   29  13.955   6.846   5.219  0.0805  0.0681  0.1400
    4ALA     HA   30  13.985   6.803   5.124 -0.9410 -0.2854 -0.0247
    4ALA     CB   31  13.931   6.995   5.193  0.0765  0.4375 -0.6215
    4ALA    HB1   32  14.022   7.045   5.160  1.5386 -1.2198  0.7032
    4ALA    HB2   33  13.848   7.015   5.126  0.0121  2.1280 -0.0943
    4ALA    HB3   34  13.903   7.040   5.289 -0.0268 -1.5277  0.3224
    4ALA      C   35  14.054   6.806   5.330 -1.0596 -0.0656  0.7918
    4ALA      O   36  14.081   6.878   5.425  0.0499  0.1720  0.0724
    5NME      N   37  14.082   6.676   5.333  0.1350 -0.5797  0.2220
    5NME      H   38  14.017   6.623   5.277 -0.2757  0.5312 -0.3585
    5NME    CH3   39  14.149   6.605   5.436 -0.1111 -0.2175 -0.1029
    5NME   HH31   40  14.106   6.628   5.534  1.7713  0.4412  0.6161
    5NME   HH32   41  14.149   6.497   5.427  0.8535 -0.4220  1.8139
    5NME   HH33   42  14.254   6.637   5.432  0.3095 -1.6571 -1.1293
  20.91516  20.91516  20.91516
