Protein
   32
    1ACE   HH31    1  12.714  15.609   6.892 -1.4829  1.9930 -0.1592
    1ACE    CH3    2  12.746  15.627   6.994 -0.5479  0.1088 -0.0755
    1ACE   HH32    3  12.661  15.599   7.056  0.3378 -0.7073  0.8160
    1ACE   HH33    4  12.772  15.731   7.013  2.0054 -0.9379  3.1105
    1ACE      C    5  12.865  15.541   7.032 -0.5503  0.0612  0.2621
    1ACE      O    6  12.857  15.425   7.075  0.6558  0.1210 -0.4310
    2ALA      N    7  12.980  15.593   6.986  0.0657  0.1926  0.4209
    2ALA      H    8  12.985  15.683   6.941  2.3862 -0.6056 -1.1032
    2ALA     CA    9  13.099  15.504   6.958  0.4747 -0.8052  0.9002
    2ALA     HA   10  13.074  15.400   6.977 -1.3285 -1.5102 -3.9154
    2ALA     CB   11  13.138  15.501   6.811  0.4181  0.2039  0.6975
    2ALA    HB1   12  13.119  15.598   6.764  2.3334 -0.6099 -1.9442
    2ALA    HB2   13  13.244  15.479   6.806  0.0735 -1.8888  1.6761
    2ALA    HB3   14  13.080  15.420   6.767  0.0536 -0.4493  2.2811
    2ALA      C   15  13.214  15.546   7.054 -0.9225  0.1158 -0.2190
    2ALA      O   16  13.264  15.457   7.123 -0.0023  0.1993 -0.3421
    3ALA      N   17  13.260  15.675   7.056  0.2580  0.5327 -0.2265
    3ALA      H   18  13.234  15.738   6.982 -1.7079  1.3984  1.1370
    3ALA     CA   19  13.362  15.726   7.147  0.2982  1.2586  0.2112
    3ALA     HA   20  13.432  15.646   7.174 -0.4455 -0.5707 -2.8267
    3ALA     CB   21  13.438  15.843   7.076  0.2398  0.2632 -0.3892
    3ALA    HB1   22  13.361  15.911   7.039  0.6485  0.6183 -0.6038
    3ALA    HB2   23  13.512  15.893   7.137 -0.1344  1.1396 -0.6404
    3ALA    HB3   24  13.497  15.804   6.993  1.3716 -0.0719  0.5449
    3ALA      C   25  13.299  15.775   7.278  0.2443 -0.5401 -0.8874
    3ALA      O   26  13.365  15.818   7.372  0.4169  0.0577  0.2978
    4NME      N   27  13.164  15.781   7.287 -0.7171 -0.2229 -0.1902
    4NME      H   28  13.115  15.736   7.211 -2.5616  3.4302 -1.4242
    4NME    CH3   29  13.076  15.861   7.376 -0.5041 -1.0192  0.0859
    4NME   HH31   30  13.029  15.946   7.328  2.6352  1.5900  1.3200
    4NME   HH32   31  12.994  15.797   7.410 -3.0630  2.9768  2.2874
    4NME   HH33   32  13.140  15.896   7.458 -1.2100 -0.9106  0.5965
  20.99041  20.99041  20.99041
