Protein
   22
    1ACE   HH31    1   1.674   8.767   5.840  0.8330  1.1437  1.2922
    1ACE    CH3    2   1.724   8.824   5.762  0.7303 -0.4130  0.0157
    1ACE   HH32    3   1.644   8.855   5.695 -0.2870  0.1925  1.4383
    1ACE   HH33    4   1.805   8.775   5.709  0.5686 -2.0043  1.1665
    1ACE      C    5   1.775   8.948   5.832 -0.3371 -0.9569 -0.7451
    1ACE      O    6   1.892   8.933   5.880 -0.0412  0.7231  0.0737
    2ALA      N    7   1.700   9.056   5.853 -0.0381  0.0732 -0.1083
    2ALA      H    8   1.607   9.057   5.813 -0.9615 -0.6799  1.9178
    2ALA     CA    9   1.751   9.175   5.920  0.1321  0.1441  0.1163
    2ALA     HA   10   1.854   9.202   5.896  0.1230 -0.7477 -1.0497
    2ALA     CB   11   1.661   9.290   5.872  0.0475  0.4913 -0.1031
    2ALA    HB1   12   1.675   9.310   5.766 -1.4631  1.0282 -0.2248
    2ALA    HB2   13   1.555   9.281   5.896 -0.4814  2.0967 -1.6440
    2ALA    HB3   14   1.690   9.385   5.917  0.3034  0.0370  0.7192
    2ALA      C   15   1.757   9.167   6.076  1.3491  0.6683 -0.2166
    2ALA      O   16   1.665   9.211   6.144 -0.4544  0.6728 -0.3423
    3NME      N   17   1.858   9.098   6.125  0.4357 -0.1304 -0.0289
    3NME      H   18   1.919   9.050   6.060 -1.6617 -1.1457 -1.3545
    3NME    CH3   19   1.874   9.084   6.269 -1.1860  0.1049  0.3804
    3NME   HH31   20   1.820   8.998   6.309 -1.2827 -0.1233 -0.2104
    3NME   HH32   21   1.980   9.069   6.288 -0.4444 -1.8954 -4.1645
    3NME   HH33   22   1.844   9.174   6.323  0.8406  2.0223 -1.4765
  10.72160  10.72160  10.72160
