Protein
   42
    1ACE   HH31    1   4.402   8.978  12.950  1.7210  1.8716  0.5634
    1ACE    CH3    2   4.486   8.948  12.887  0.3775 -0.3502 -0.3119
    1ACE   HH32    3   4.449   8.942  12.785 -0.2060 -0.4573 -0.0931
    1ACE   HH33    4   4.531   8.860  12.933  2.2759  1.3254  1.2311
    1ACE      C    5   4.586   9.062  12.910 -0.3036 -0.5347  0.7349
    1ACE      O    6   4.612   9.113  13.018  0.0141 -0.7576 -0.3444
    2ALA      N    7   4.625   9.104  12.793  0.0358  0.4630 -0.5325
    2ALA      H    8   4.591   9.078  12.702  1.6372  0.2222 -1.0996
    2ALA     CA    9   4.726   9.208  12.771  0.2103 -0.1618 -0.5299
    2ALA     HA   10   4.724   9.277  12.855 -1.3972 -0.5864 -0.1763
    2ALA     CB   11   4.864   9.151  12.766 -0.3086 -0.5865 -0.7343
    2ALA    HB1   12   4.865   9.087  12.678 -3.7628 -1.2595 -0.4525
    2ALA    HB2   13   4.942   9.225  12.753 -1.9344  1.4579  0.5825
    2ALA    HB3   14   4.876   9.090  12.855  0.0820  0.1520 -0.2799
    2ALA      C   15   4.711   9.286  12.641  0.0008  0.2326 -0.2178
    2ALA      O   16   4.642   9.239  12.554 -0.0344 -0.0698  0.3920
    3ALA      N   17   4.771   9.408  12.627  0.6430  0.2883  0.3451
    3ALA      H   18   4.751   9.456  12.541 -2.7670 -0.4041  0.5912
    3ALA     CA   19   4.842   9.490  12.734 -0.5308 -1.0933  0.1649
    3ALA     HA   20   4.908   9.434  12.801  2.1788  2.7100  0.9562
    3ALA     CB   21   4.936   9.589  12.669  0.1196 -0.1785 -0.3507
    3ALA    HB1   22   4.995   9.643  12.743  0.1586  1.8137 -1.7558
    3ALA    HB2   23   5.014   9.530  12.620 -0.1096  0.4056 -1.4692
    3ALA    HB3   24   4.887   9.659  12.602  1.1627 -0.3478 -1.3257
    3ALA      C   25   4.748   9.573  12.829 -0.0612 -0.0834  0.1748
    3ALA      O   26   4.774   9.577  12.945  0.2190  0.2140  0.0210
    4ALA      N   27   4.625   9.604  12.779  0.1893  0.2615 -0.1726
    4ALA      H   28   4.601   9.570  12.687  0.8748  0.8052 -0.5545
    4ALA     CA   29   4.506   9.626  12.864 -0.3712  0.0272 -0.5031
    4ALA     HA   30   4.541   9.697  12.939 -0.1352 -1.6584  1.0483
    4ALA     CB   31   4.398   9.700  12.778 -0.9059  0.8608 -0.8848
    4ALA    HB1   32   4.373   9.647  12.686 -4.7455 -0.6676  0.7749
    4ALA    HB2   33   4.300   9.708  12.827  0.0360  1.5950  0.9464
    4ALA    HB3   34   4.431   9.801  12.758 -0.1419  1.1759  1.6170
    4ALA      C   35   4.451   9.495  12.927 -0.2135  0.3688 -0.1593
    4ALA      O   36   4.379   9.415  12.869 -0.2399  0.1014  0.3958
    5NME      N   37   4.490   9.487  13.054 -0.5104 -0.1840  0.3208
    5NME      H   38   4.557   9.556  13.084 -1.3019  0.6686  0.1680
    5NME    CH3   39   4.454   9.382  13.147 -0.1439 -0.1682 -0.0691
    5NME   HH31   40   4.373   9.417  13.212 -0.5510  1.6508 -1.4715
    5NME   HH32   41   4.415   9.294  13.095 -1.5549  1.5459 -2.0263
    5NME   HH33   42   4.546   9.350  13.196  0.8657  1.8770 -0.5158
  20.91516  20.91516  20.91516
