Protein
   32
    1ACE   HH31    1  11.845  12.398  12.410 -1.4027  1.0083  0.8917
    1ACE    CH3    2  11.757  12.376  12.349 -0.3945  0.2172 -0.3534
    1ACE   HH32    3  11.754  12.429  12.254 -1.5080 -0.4252 -0.6962
    1ACE   HH33    4  11.671  12.385  12.415  0.2136 -0.0349  0.5022
    1ACE      C    5  11.783  12.227  12.309  0.1180 -0.0937 -0.4420
    1ACE      O    6  11.895  12.188  12.321 -0.5695 -0.5582 -1.0891
    2ALA      N    7  11.683  12.156  12.251 -0.5662 -0.1706  0.2280
    2ALA      H    8  11.593  12.199  12.236 -1.4767 -1.6749  1.2028
    2ALA     CA    9  11.677  12.015  12.229  0.0692  0.5294  0.0911
    2ALA     HA   10  11.570  11.994  12.229 -0.0731  1.1965  0.6407
    2ALA     CB   11  11.724  11.986  12.090  0.5986 -0.9802  0.1051
    2ALA    HB1   12  11.827  12.020  12.080  0.5516 -0.9061 -0.0924
    2ALA    HB2   13  11.718  11.882  12.058  2.7497 -0.9997 -0.3286
    2ALA    HB3   14  11.662  12.040  12.018 -0.4504 -1.9572  0.2472
    2ALA      C   15  11.734  11.914  12.336  0.2922 -0.2905  0.4813
    2ALA      O   16  11.662  11.815  12.361  0.2316  0.1194  0.4971
    3ALA      N   17  11.858  11.926  12.385 -0.2090 -0.3388 -0.4742
    3ALA      H   18  11.898  12.014  12.359 -1.1573  0.4718  0.7002
    3ALA     CA   19  11.920  11.852  12.497  0.7635  0.3528 -0.1786
    3ALA     HA   20  11.846  11.791  12.548  0.4074  1.5240  0.7469
    3ALA     CB   21  12.028  11.743  12.446  0.5935 -0.1963 -0.5583
    3ALA    HB1   22  11.977  11.654  12.408 -1.1843  0.4958  0.1115
    3ALA    HB2   23  12.096  11.780  12.370  2.4037 -1.8598  0.1621
    3ALA    HB3   24  12.093  11.717  12.530 -0.5298  1.8096  0.9925
    3ALA      C   25  11.988  11.949  12.600  0.3068 -0.4934  0.8672
    3ALA      O   26  11.957  11.951  12.715  0.0401 -0.3138 -0.4338
    4NME      N   27  12.088  12.025  12.551 -0.2055 -0.0277 -0.7909
    4NME      H   28  12.099  12.014  12.451 -0.7328  1.4990 -1.0375
    4NME    CH3   29  12.187  12.099  12.632 -0.2498 -0.2698 -0.0790
    4NME   HH31   30  12.172  12.066  12.735  1.3478 -2.6074 -0.5393
    4NME   HH32   31  12.285  12.095  12.586 -1.3157 -0.1442 -2.5517
    4NME   HH33   32  12.158  12.204  12.623 -0.4379 -0.4522 -2.2112
  20.99041  20.99041  20.99041
