Protein
   32
    1ACE   HH31    1  12.174   7.535  14.251  1.6477  1.1195  0.3733
    1ACE    CH3    2  12.126   7.533  14.349 -0.0133  0.0349 -0.3830
    1ACE   HH32    3  12.174   7.606  14.414 -0.1241  0.2519 -0.5428
    1ACE   HH33    4  12.146   7.437  14.397  0.5457  0.3681  0.0687
    1ACE      C    5  11.975   7.543  14.352  0.1086  0.4518 -0.4037
    1ACE      O    6  11.923   7.646  14.397 -0.2915  0.1659  0.5734
    2ALA      N    7  11.905   7.437  14.305  0.5241  0.7972 -0.0499
    2ALA      H    8  11.961   7.358  14.276 -0.7358 -0.4956  0.8201
    2ALA     CA    9  11.752   7.419  14.291 -0.2104 -0.5180  0.3293
    2ALA     HA   10  11.740   7.319  14.250  0.7914 -0.3326 -0.4501
    2ALA     CB   11  11.690   7.429  14.431  0.0983  0.4212  0.4234
    2ALA    HB1   12  11.730   7.354  14.499  1.2598  1.5536  1.0264
    2ALA    HB2   13  11.707   7.525  14.478  2.3747  0.2324  0.0800
    2ALA    HB3   14  11.581   7.418  14.429  0.0707  0.6800  0.5261
    2ALA      C   15  11.685   7.523  14.199  0.4173  0.7198 -0.0609
    2ALA      O   16  11.564   7.536  14.193 -0.2160  0.2236  0.1462
    3ALA      N   17  11.769   7.593  14.114  0.0358  0.4536 -0.8466
    3ALA      H   18  11.867   7.591  14.136 -0.3457  0.0912  0.8774
    3ALA     CA   19  11.718   7.690  14.018 -0.1224 -0.3722  0.0033
    3ALA     HA   20  11.634   7.735  14.072 -0.2392  1.7823 -1.8560
    3ALA     CB   21  11.814   7.809  13.996 -0.4222  0.1573 -0.0869
    3ALA    HB1   22  11.773   7.881  13.926  1.5450  0.2107 -1.2562
    3ALA    HB2   23  11.836   7.859  14.090 -2.1503  5.5626 -2.1767
    3ALA    HB3   24  11.903   7.765  13.950 -1.0954 -0.0045 -1.2779
    3ALA      C   25  11.666   7.618  13.897 -0.2111 -1.2201 -0.0069
    3ALA      O   26  11.729   7.615  13.791  0.1919 -0.4460 -0.3867
    4NME      N   27  11.546   7.566  13.906 -0.2692 -0.6838  0.1343
    4NME      H   28  11.503   7.561  13.998 -2.4977 -0.5226 -0.8235
    4NME    CH3   29  11.474   7.492  13.805 -0.5923  0.0290  0.4317
    4NME   HH31   30  11.545   7.452  13.732  0.2091 -2.8104  2.5695
    4NME   HH32   31  11.432   7.398  13.839  0.3828 -0.4943  0.2303
    4NME   HH33   32  11.397   7.559  13.767  0.6477  1.4744  0.3879
  20.99041  20.99041  20.99041
