Protein
   42
    1ACE   HH31    1  16.670   3.477  11.579  1.5780  0.9169  0.8621
    1ACE    CH3    2  16.637   3.414  11.661  0.1857  0.0801 -0.2985
    1ACE   HH32    3  16.684   3.443  11.755  1.2499 -0.0772 -0.7741
    1ACE   HH33    4  16.656   3.307  11.651 -1.6855 -0.2561 -0.6589
    1ACE      C    5  16.485   3.422  11.670 -0.7431  0.0297  0.1171
    1ACE      O    6  16.415   3.330  11.633  0.3552 -0.1429 -0.0770
    2ALA      N    7  16.428   3.539  11.688 -0.0013 -0.1679  0.3261
    2ALA      H    8  16.489   3.612  11.722  1.3234  0.2506 -2.6076
    2ALA     CA    9  16.282   3.551  11.679 -0.8036 -0.2317 -0.4021
    2ALA     HA   10  16.243   3.474  11.746 -1.8180  0.0668 -0.6343
    2ALA     CB   11  16.245   3.686  11.739 -0.6665  0.3320  0.0728
    2ALA    HB1   12  16.138   3.693  11.761 -0.0602  0.6579  3.4962
    2ALA    HB2   13  16.296   3.698  11.835  1.7355 -1.7079 -0.8372
    2ALA    HB3   14  16.277   3.765  11.672  1.5786 -0.0600  0.6145
    2ALA      C   15  16.223   3.522  11.534 -0.2593 -0.2455 -0.0897
    2ALA      O   16  16.106   3.491  11.512 -0.5095  0.2671  0.1487
    3ALA      N   17  16.321   3.531  11.441  0.4299  0.6888  0.2645
    3ALA      H   18  16.411   3.541  11.487  0.0289  0.7312  1.0563
    3ALA     CA   19  16.310   3.489  11.300  0.6718 -0.2823 -0.7271
    3ALA     HA   20  16.212   3.444  11.290 -0.6692  1.8543  1.7472
    3ALA     CB   21  16.313   3.616  11.211  0.3504  0.1832  0.5702
    3ALA    HB1   22  16.228   3.679  11.237  0.1022  0.4468 -0.8126
    3ALA    HB2   23  16.402   3.676  11.233  1.3414 -1.5575  1.4910
    3ALA    HB3   24  16.311   3.589  11.105  0.3238  0.8580  0.3939
    3ALA      C   25  16.418   3.383  11.261 -0.6220  0.1260 -0.2737
    3ALA      O   26  16.485   3.397  11.157 -0.4926  0.0390  0.2599
    4ALA      N   27  16.440   3.284  11.345  0.5856 -0.3271  0.1343
    4ALA      H   28  16.391   3.286  11.433 -0.3720  1.0807 -0.3997
    4ALA     CA   29  16.522   3.163  11.320  0.2712 -0.2866 -0.3054
    4ALA     HA   30  16.622   3.201  11.300  0.6277 -2.1239 -2.5260
    4ALA     CB   31  16.527   3.082  11.454 -0.5441  0.2468  0.4879
    4ALA    HB1   32  16.577   2.986  11.447 -2.5022 -0.7251 -1.0789
    4ALA    HB2   33  16.581   3.137  11.532 -0.8958  0.9338  0.2594
    4ALA    HB3   34  16.425   3.060  11.484 -0.1429 -2.0684  0.3365
    4ALA      C   35  16.467   3.076  11.199 -0.5535 -0.7435  0.7888
    4ALA      O   36  16.540   2.988  11.159  0.1105  0.3523  0.5430
    5NME      N   37  16.348   3.109  11.148  0.4760  0.3768  0.1625
    5NME      H   38  16.299   3.187  11.189 -2.5723 -1.0075 -0.6423
    5NME    CH3   39  16.287   3.033  11.040  0.6309  0.1136  0.1789
    5NME   HH31   40  16.337   3.048  10.944  1.7599  1.3998  0.9214
    5NME   HH32   41  16.284   2.927  11.066 -0.7207 -0.4761 -2.1823
    5NME   HH33   42  16.185   3.067  11.024  0.7921  1.2139  1.2348
  20.91516  20.91516  20.91516
