Protein
   32
    1ACE   HH31    1   8.816   9.980  10.171 -0.0229  1.2849  1.4475
    1ACE    CH3    2   8.714   9.970  10.209 -0.4066 -0.5021  0.0951
    1ACE   HH32    3   8.641   9.969  10.129 -0.2535  1.5444 -0.1067
    1ACE   HH33    4   8.682  10.055  10.270  0.7904  0.0872 -0.0566
    1ACE      C    5   8.700   9.848  10.302  0.4119 -0.1458 -0.4031
    1ACE      O    6   8.743   9.856  10.417 -0.4851  0.0158  0.0739
    2ALA      N    7   8.662   9.737  10.246 -0.2307  0.8082  0.3936
    2ALA      H    8   8.629   9.740  10.151  0.4912 -0.4008  0.0877
    2ALA     CA    9   8.644   9.606  10.323 -0.8456 -0.2744  0.4699
    2ALA     HA   10   8.637   9.634  10.429  0.4276  1.2385  0.1955
    2ALA     CB   11   8.508   9.537  10.274 -0.5948 -0.2679  0.5441
    2ALA    HB1   12   8.423   9.605  10.277  0.2898  0.8171  1.1940
    2ALA    HB2   13   8.520   9.507  10.169  0.5138  0.8255  0.3347
    2ALA    HB3   14   8.485   9.449  10.334  0.3478  0.3397  1.8499
    2ALA      C   15   8.767   9.525  10.310 -0.2461 -0.0705 -0.1993
    2ALA      O   16   8.780   9.430  10.232  0.1698 -0.0263  0.5662
    3ALA      N   17   8.859   9.557  10.400  0.3879  0.8276  0.2870
    3ALA      H   18   8.827   9.630  10.463 -3.5552 -1.0893  0.7746
    3ALA     CA   19   8.978   9.477  10.435  0.2976  0.1940 -0.4171
    3ALA     HA   20   8.964   9.371  10.412  0.8441 -0.1404  0.7432
    3ALA     CB   21   9.101   9.520  10.350  0.2488  0.6183 -0.1699
    3ALA    HB1   22   9.111   9.628  10.359 -1.7895  0.8549 -0.1449
    3ALA    HB2   23   9.193   9.468  10.374 -1.1517 -1.7037  0.4642
    3ALA    HB3   24   9.078   9.502  10.245 -1.1409 -0.8634  0.3510
    3ALA      C   25   9.010   9.480  10.587  0.0147 -0.2298 -0.0628
    3ALA      O   26   8.926   9.469  10.674 -0.3910 -0.2663  0.3483
    4NME      N   27   9.143   9.485  10.622  0.4086 -0.1761 -0.1744
    4NME      H   28   9.218   9.485  10.554  0.2835  0.7213 -0.3263
    4NME    CH3   29   9.180   9.493  10.766 -0.3366 -0.3308  0.3974
    4NME   HH31   30   9.104   9.443  10.826 -0.2809 -0.3013  0.4948
    4NME   HH32   31   9.277   9.451  10.791 -0.3692 -1.0241 -0.5818
    4NME   HH33   32   9.182   9.598  10.797 -1.4989  0.4717 -2.0371
  20.99041  20.99041  20.99041
