Protein
   42
    1ACE   HH31    1  16.025  12.745  12.277 -1.2801 -1.0577  0.4806
    1ACE    CH3    2  15.924  12.774  12.306 -0.7466  0.2621  1.0438
    1ACE   HH32    3  15.869  12.817  12.222 -1.9375 -1.7957  0.7273
    1ACE   HH33    4  15.934  12.834  12.397  2.3636  0.0893  0.8996
    1ACE      C    5  15.854  12.647  12.347 -0.0445  0.1239  0.2666
    1ACE      O    6  15.739  12.619  12.318 -0.0398 -0.3552 -0.2555
    2ALA      N    7  15.933  12.572  12.420 -0.4138  0.0633  0.4283
    2ALA      H    8  16.021  12.615  12.445  0.8096 -0.8554 -2.0416
    2ALA     CA    9  15.905  12.439  12.475  0.6557  0.2258 -0.2553
    2ALA     HA   10  15.801  12.413  12.494  0.6701  0.1148 -0.3365
    2ALA     CB   11  15.945  12.331  12.373 -0.0548 -0.0826 -0.4243
    2ALA    HB1   12  15.914  12.235  12.413  1.0732 -0.1675  0.2669
    2ALA    HB2   13  15.893  12.354  12.279  0.2617  1.8432 -0.1622
    2ALA    HB3   14  16.053  12.320  12.369 -0.0349 -0.1960  0.3277
    2ALA      C   15  15.971  12.420  12.613  0.0197 -0.8836 -0.1886
    2ALA      O   16  16.061  12.499  12.650  0.0990  0.6279  0.3319
    3ALA      N   17  15.924  12.326  12.691 -0.5163 -0.1857  0.1061
    3ALA      H   18  15.844  12.273  12.659 -0.3604 -0.2456 -0.1907
    3ALA     CA   19  15.961  12.313  12.832 -1.2864  0.5291  0.1345
    3ALA     HA   20  16.069  12.327  12.844 -1.6404  2.7721  1.1462
    3ALA     CB   21  15.895  12.422  12.914  0.0708  0.3009  1.1539
    3ALA    HB1   22  15.923  12.408  13.019  0.7535 -2.9939  0.6285
    3ALA    HB2   23  15.930  12.524  12.895 -1.7961  1.0724  1.6720
    3ALA    HB3   24  15.787  12.414  12.908  0.1208  0.3484 -0.9189
    3ALA      C   25  15.911  12.174  12.880 -0.1812 -0.2429 -0.4320
    3ALA      O   26  15.961  12.072  12.823  0.1980 -0.1018  0.1003
    4ALA      N   27  15.818  12.162  12.975 -0.5430  0.2268 -0.2303
    4ALA      H   28  15.773  12.246  13.007 -0.5219  0.2535 -0.2643
    4ALA     CA   29  15.768  12.037  13.039  0.6690 -0.1791 -0.0097
    4ALA     HA   30  15.849  11.964  13.042  1.7372  1.0008  0.7895
    4ALA     CB   31  15.722  12.071  13.180 -0.0123 -0.0095  0.0788
    4ALA    HB1   32  15.673  11.988  13.231 -0.9104  1.4871  1.7448
    4ALA    HB2   33  15.812  12.103  13.233  0.9128 -2.7123  0.2410
    4ALA    HB3   34  15.641  12.144  13.179 -1.8127 -1.8908 -1.5304
    4ALA      C   35  15.663  11.966  12.954 -0.4537  0.4563 -0.1839
    4ALA      O   36  15.542  11.956  12.988  0.7448  0.5115  0.0164
    5NME      N   37  15.706  11.913  12.837  0.6276  0.0700  0.2065
    5NME      H   38  15.805  11.920  12.817  1.0586  1.0033  2.3481
    5NME    CH3   39  15.626  11.832  12.752 -0.4034 -0.3572 -0.0301
    5NME   HH31   40  15.697  11.771  12.697  1.2941  2.4592 -1.1903
    5NME   HH32   41  15.555  11.774  12.810  0.7348 -1.5075  0.2556
    5NME   HH33   42  15.579  11.894  12.676  0.0889 -0.1760 -0.2012
  20.91516  20.91516  20.91516
