<<<<<<< HEAD
Protein
   42
    1ACE   HH31    1   3.679   7.814  12.307  1.5181 -0.5799 -0.6173
    1ACE    CH3    2   3.620   7.788  12.220 -0.0469  0.2715  0.1589
    1ACE   HH32    3   3.523   7.837  12.228  0.5339  1.2531  1.6744
    1ACE   HH33    4   3.602   7.681  12.207  0.4898  0.4039 -2.4140
    1ACE      C    5   3.687   7.844  12.094 -0.3543 -0.4242  0.9157
    1ACE      O    6   3.615   7.903  12.014 -0.2503 -0.1231  0.6570
    2ALA      N    7   3.824   7.845  12.084  0.0476 -0.0713 -0.1288
    2ALA      H    8   3.881   7.785  12.143  2.8447  1.7471 -0.7731
    2ALA     CA    9   3.894   7.891  11.959 -0.0286 -0.2762  0.3007
    2ALA     HA   10   3.831   7.852  11.878 -0.8159 -0.4000  0.9615
    2ALA     CB   11   3.891   8.046  11.963 -0.2470 -0.4767 -0.3137
    2ALA    HB1   12   3.961   8.088  11.892 -1.6773  0.1692 -1.3893
    2ALA    HB2   13   3.789   8.079  11.942 -0.0931 -1.4326 -3.0478
    2ALA    HB3   14   3.918   8.075  12.065  0.6419  1.9886 -1.1928
    2ALA      C   15   4.039   7.839  11.952 -0.7623 -0.5242 -0.5307
    2ALA      O   16   4.088   7.786  12.054 -0.2946  0.6077 -0.6271
    3ALA      N   17   4.113   7.868  11.842 -0.0957  0.2052 -0.4926
    3ALA      H   18   4.212   7.854  11.856  0.2865  3.0385  0.2297
    3ALA     CA   19   4.079   7.888  11.704 -0.2404 -0.5268 -0.4141
    3ALA     HA   20   3.978   7.928  11.693  0.1274  0.8877  1.0391
    3ALA     CB   21   4.169   7.996  11.645  0.8675  0.1410  0.0021
    3ALA    HB1   22   4.149   8.085  11.705  0.5959 -0.4966  0.8717
    3ALA    HB2   23   4.273   7.966  11.628  0.7592  0.6785 -1.8147
    3ALA    HB3   24   4.127   8.001  11.545 -2.1919 -2.3501  1.0253
    3ALA      C   25   4.089   7.755  11.628 -0.5347 -0.2725  0.9954
    3ALA      O   26   3.985   7.709  11.585 -0.5546 -0.1852 -0.2321
    4ALA      N   27   4.206   7.700  11.602  0.0093  0.3251 -0.7458
    4ALA      H   28   4.286   7.741  11.649 -0.4939  2.1508 -1.4216
    4ALA     CA   29   4.241   7.609  11.494 -0.5007 -0.2673 -0.5530
    4ALA     HA   30   4.195   7.640  11.400 -0.3522 -1.2133 -0.9477
    4ALA     CB   31   4.392   7.613  11.489  0.6532 -0.2761  0.2256
    4ALA    HB1   32   4.431   7.551  11.570 -0.3079 -1.5654 -0.2616
    4ALA    HB2   33   4.420   7.571  11.393  2.1551 -1.5900  1.1990
    4ALA    HB3   34   4.433   7.714  11.491 -1.1808  0.5151 -0.0922
    4ALA      C   35   4.180   7.468  11.514  0.8695 -0.0528 -0.0158
    4ALA      O   36   4.253   7.373  11.503 -0.1182  0.4931  0.0688
    5NME      N   37   4.051   7.449  11.549 -0.2364  0.3140 -0.3843
    5NME      H   38   3.996   7.534  11.547 -0.7057  0.0459  0.4183
    5NME    CH3   39   3.984   7.325  11.583  0.3047  0.5302  0.0758
    5NME   HH31   40   3.969   7.258  11.498  0.3116  1.4080 -0.6295
    5NME   HH32   41   4.047   7.278  11.658  1.7231 -0.6821 -1.7952
    5NME   HH33   42   3.890   7.349  11.632 -0.0170 -0.8927  0.1995
  20.91516  20.91516  20.91516
=======
Protein
   42
    1ACE   HH31    1  10.022  11.934   6.255  0.0843 -0.7036 -0.3044
    1ACE    CH3    2   9.986  12.005   6.181 -0.2965 -0.5260  0.0446
    1ACE   HH32    3  10.060  12.083   6.159 -1.8393  0.6303 -1.2666
    1ACE   HH33    4   9.896  12.055   6.216 -0.4017 -1.5528  1.3268
    1ACE      C    5   9.948  11.939   6.050 -0.9073  0.4376 -0.0451
    1ACE      O    6   9.979  11.824   6.027 -0.2756 -0.3607 -0.2722
    2ALA      N    7   9.880  12.015   5.968 -0.7342  0.1331 -0.2516
    2ALA      H    8   9.869  12.109   6.003 -0.1767  0.3037 -0.5172
    2ALA     CA    9   9.839  11.983   5.831  0.6807 -0.7488 -0.1722
    2ALA     HA   10   9.916  11.923   5.783  1.9429  1.0992 -0.5311
    2ALA     CB   11   9.708  11.901   5.831  0.4138 -0.1633 -0.5531
    2ALA    HB1   12   9.716  11.817   5.901  2.0600  0.7209  0.3738
    2ALA    HB2   13   9.619  11.954   5.863 -1.0031 -2.2264 -0.8161
    2ALA    HB3   14   9.687  11.872   5.728 -0.0580  0.2187 -0.5653
    2ALA      C   15   9.825  12.112   5.748  0.7370 -0.0259  0.5511
    2ALA      O   16   9.889  12.214   5.788  0.6112 -0.1735 -0.1003
    3ALA      N   17   9.731  12.121   5.651  0.1313  0.5915  0.2170
    3ALA      H   18   9.697  12.032   5.618  1.7027 -0.5650  1.5017
    3ALA     CA   19   9.663  12.244   5.614 -0.6045 -0.1839  0.0710
    3ALA     HA   20   9.740  12.317   5.588  0.6929 -1.5381 -0.0264
    3ALA     CB   21   9.584  12.224   5.486  0.3160 -0.5324  0.3198
    3ALA    HB1   22   9.547  12.314   5.438 -0.2268 -1.0538 -0.2789
    3ALA    HB2   23   9.634  12.158   5.415  2.0414 -0.8638  1.7884
    3ALA    HB3   24   9.495  12.166   5.511  0.0317 -0.6495 -0.8543
    3ALA      C   25   9.583  12.293   5.731  0.7315 -0.0672  0.2140
    3ALA      O   26   9.464  12.258   5.745 -0.5122 -0.4759  0.2462
    4ALA      N   27   9.640  12.381   5.809  0.2231 -0.8422  0.4881
    4ALA      H   28   9.734  12.416   5.795 -0.1133  0.7885  1.9270
    4ALA     CA   29   9.589  12.414   5.946 -0.0508  0.4637 -0.1054
    4ALA     HA   30   9.666  12.474   5.994 -0.6512  0.4122  0.9623
    4ALA     CB   31   9.477  12.514   5.944  0.1448  0.6534 -0.3355
    4ALA    HB1   32   9.462  12.559   6.043 -1.9190 -0.6185 -0.0318
    4ALA    HB2   33   9.515  12.594   5.880  0.5587  0.0911 -0.8022
    4ALA    HB3   34   9.391  12.465   5.900  0.5162 -0.6418  0.3250
    4ALA      C   35   9.560  12.285   6.029  0.3968 -0.3717 -0.5645
    4ALA      O   36   9.655  12.213   6.048  0.3790  0.5850  1.0615
    5NME      N   37   9.439  12.241   6.058  0.0167 -0.1401  0.0181
    5NME      H   38   9.376  12.307   6.014  1.9103  1.2485 -0.7502
    5NME    CH3   39   9.408  12.115   6.107  0.1029  0.0370  0.1147
    5NME   HH31   40   9.444  12.109   6.210  1.0698  2.1402 -0.0136
    5NME   HH32   41   9.301  12.099   6.090 -0.2464  2.1105  0.0691
    5NME   HH33   42   9.455  12.035   6.050 -0.5661 -0.1389 -0.1911
  20.91516  20.91516  20.91516
>>>>>>> e505351e8895c44bcd67ad8436d05c0eaca14691
