Protein
   22
    1ACE   HH31    1   9.746   1.743   7.102  0.0002 -2.2893 -2.9583
    1ACE    CH3    2   9.838   1.691   7.128  0.3775 -0.4748 -0.2600
    1ACE   HH32    3   9.915   1.768   7.138  0.1043 -0.1512 -0.5756
    1ACE   HH33    4   9.855   1.608   7.060  3.7790  0.9611 -1.3969
    1ACE      C    5   9.819   1.636   7.271 -0.0755  0.9563 -0.0790
    1ACE      O    6   9.711   1.627   7.327  0.0970 -0.5747 -0.1140
    2ALA      N    7   9.933   1.606   7.330  0.3725 -0.6624 -0.5935
    2ALA      H    8  10.025   1.622   7.291  0.2981  0.0709 -0.4920
    2ALA     CA    9   9.932   1.514   7.445  0.1248  0.6082  0.3272
    2ALA     HA   10   9.867   1.431   7.419 -1.2890  1.8867 -0.4046
    2ALA     CB   11  10.072   1.465   7.481  0.2988  0.4388 -0.1366
    2ALA    HB1   12  10.063   1.375   7.542  1.3635  1.2117  1.2417
    2ALA    HB2   13  10.125   1.434   7.391 -0.9968 -1.1362 -0.3923
    2ALA    HB3   14  10.122   1.548   7.533 -0.4528  0.4379  0.6064
    2ALA      C   15   9.857   1.585   7.566  0.5038  0.5965 -0.5646
    2ALA      O   16   9.800   1.511   7.644  0.4431 -0.2402  0.1613
    3NME      N   17   9.876   1.716   7.589  0.2928  0.6498 -0.0287
    3NME      H   18   9.915   1.769   7.512 -0.7113  1.1880 -0.1944
    3NME    CH3   19   9.835   1.784   7.710 -0.5456  0.0165 -0.2661
    3NME   HH31   20   9.918   1.852   7.730  0.2413 -1.0416  0.1269
    3NME   HH32   21   9.742   1.840   7.697 -1.6357 -1.5189  0.5808
    3NME   HH33   22   9.822   1.711   7.789  2.8541  0.9342  1.2682
  10.72160  10.72160  10.72160
