Protein
   42
    1ACE   HH31    1   4.193  15.988  17.324 -0.3761 -2.1788 -1.3806
    1ACE    CH3    2   4.260  16.041  17.257 -0.2217 -0.7587 -0.1529
    1ACE   HH32    3   4.345  16.081  17.313 -1.9756  0.6808  1.6078
    1ACE   HH33    4   4.195  16.119  17.218  0.0817 -0.0361  0.7760
    1ACE      C    5   4.308  15.956  17.140  0.9974 -1.0067 -0.2991
    1ACE      O    6   4.411  15.903  17.154  0.2146  0.2666  0.0732
    2ALA      N    7   4.227  15.950  17.029  0.1926  0.3954 -0.2066
    2ALA      H    8   4.147  16.011  17.031 -0.8068 -0.8662  2.1946
    2ALA     CA    9   4.253  15.865  16.914 -0.3122  0.3187  0.1954
    2ALA     HA   10   4.359  15.839  16.914 -0.0082  1.3594  2.0880
    2ALA     CB   11   4.189  15.727  16.920 -0.0002  0.3872  0.1058
    2ALA    HB1   12   4.228  15.664  16.999  1.5336  1.0031 -0.1266
    2ALA    HB2   13   4.081  15.738  16.927  0.0005  0.1350  0.5920
    2ALA    HB3   14   4.206  15.680  16.823 -0.4008 -0.0086  0.2281
    2ALA      C   15   4.228  15.945  16.782 -0.3862  0.4952  0.3301
    2ALA      O   16   4.135  16.026  16.769  0.6014  0.1345  0.0927
    3ALA      N   17   4.318  15.927  16.682 -0.6650 -0.0426 -0.2440
    3ALA      H   18   4.285  15.980  16.602 -0.7196 -0.6563 -0.6313
    3ALA     CA   19   4.457  15.882  16.678 -0.3584  0.2613 -0.7261
    3ALA     HA   20   4.457  15.779  16.713 -0.4937  0.1418 -1.0673
    3ALA     CB   21   4.495  15.884  16.530 -0.5233 -0.7260  0.3509
    3ALA    HB1   22   4.599  15.854  16.517 -0.4689 -1.0128  1.3855
    3ALA    HB2   23   4.438  15.825  16.458  1.3228 -0.4298 -1.4726
    3ALA    HB3   24   4.494  15.990  16.505 -1.2938 -0.2409  2.2629
    3ALA      C   25   4.552  15.964  16.768 -0.4083  0.9048 -0.6611
    3ALA      O   26   4.659  15.911  16.808  0.0466 -0.0700 -0.1384
    4ALA      N   27   4.510  16.080  16.825 -0.0417 -0.6605  0.4048
    4ALA      H   28   4.424  16.119  16.790  0.1164 -0.4639  0.2274
    4ALA     CA   29   4.573  16.143  16.942  1.3082 -0.2666 -0.3582
    4ALA     HA   30   4.584  16.060  17.012  0.2969  0.3001  0.5250
    4ALA     CB   31   4.700  16.212  16.899 -0.3678  0.0096  0.0773
    4ALA    HB1   32   4.782  16.142  16.881 -1.1618 -0.5652 -1.5156
    4ALA    HB2   33   4.676  16.274  16.812 -0.3886 -2.7090 -1.9817
    4ALA    HB3   34   4.737  16.279  16.976 -1.1409 -0.6822  1.0748
    4ALA      C   35   4.475  16.241  17.010  0.4338  0.2108 -0.1347
    4ALA      O   36   4.381  16.302  16.949  0.4989  0.3191 -0.4052
    5NME      N   37   4.501  16.263  17.136  0.5676 -0.3959  0.5553
    5NME      H   38   4.582  16.213  17.171  1.0598 -0.8074 -1.0942
    5NME    CH3   39   4.437  16.362  17.209  0.0379  0.4052 -0.8362
    5NME   HH31   40   4.469  16.458  17.170  2.0812 -0.1207 -0.6025
    5NME   HH32   41   4.329  16.359  17.200  0.0182  2.1004 -1.5921
    5NME   HH33   42   4.457  16.350  17.316 -2.9034  0.0874 -0.2626
  20.91516  20.91516  20.91516
