Protein
   42
    1ACE   HH31    1  19.114   8.188  11.659 -0.0266 -1.7840 -0.0020
    1ACE    CH3    2  19.045   8.179  11.744  0.2151  0.4639  0.4879
    1ACE   HH32    3  18.981   8.096  11.714  1.1750 -0.0993 -0.0464
    1ACE   HH33    4  18.988   8.272  11.749  2.2518  1.9728 -1.7089
    1ACE      C    5  19.128   8.157  11.861 -0.2876  0.0389  1.0428
    1ACE      O    6  19.244   8.123  11.851  0.3142  0.0873 -0.2296
    2ALA      N    7  19.064   8.175  11.978  0.4993  0.2129  0.3214
    2ALA      H    8  18.965   8.192  11.983 -0.3237 -3.8937  3.2801
    2ALA     CA    9  19.123   8.168  12.110  0.2063 -0.4292 -0.6606
    2ALA     HA   10  19.229   8.142  12.103 -0.3419 -3.4206  0.5811
    2ALA     CB   11  19.108   8.314  12.175 -0.3948 -0.7715  0.5535
    2ALA    HB1   12  19.160   8.383  12.108 -0.2382 -3.1488 -2.0029
    2ALA    HB2   13  19.005   8.348  12.172 -0.0130  0.6254  2.1965
    2ALA    HB3   14  19.148   8.332  12.274 -0.5043  0.1983  0.4275
    2ALA      C   15  19.067   8.057  12.196  0.9693  0.0913 -0.5372
    2ALA      O   16  19.008   8.083  12.297  0.1023 -0.0629 -0.2797
    3ALA      N   17  19.079   7.930  12.162  0.0567  0.4511 -0.1451
    3ALA      H   18  19.014   7.866  12.205 -0.4261 -0.6668 -2.3920
    3ALA     CA   19  19.171   7.869  12.062  0.3390  0.5045  0.1069
    3ALA     HA   20  19.244   7.938  12.020  0.2304  1.3712  1.3038
    3ALA     CB   21  19.254   7.755  12.134 -0.1903  0.3398  0.0284
    3ALA    HB1   22  19.313   7.704  12.058 -0.3704  0.4624 -0.1947
    3ALA    HB2   23  19.314   7.794  12.217 -0.9250 -0.4764  0.9785
    3ALA    HB3   24  19.185   7.678  12.169 -1.4069  0.8018 -1.3014
    3ALA      C   25  19.097   7.820  11.942  0.3309  0.5312 -0.7505
    3ALA      O   26  18.992   7.757  11.969 -0.3951  0.2448  0.0930
    4ALA      N   27  19.140   7.839  11.813  0.0839 -0.2861  0.6445
    4ALA      H   28  19.210   7.909  11.793 -2.5752  1.9740 -1.5537
    4ALA     CA   29  19.122   7.751  11.700  0.6346 -0.6600  0.3759
    4ALA     HA   30  19.198   7.785  11.630  1.4525 -1.5362  0.7908
    4ALA     CB   31  19.167   7.603  11.713  0.4828  0.1497 -0.6268
    4ALA    HB1   32  19.135   7.554  11.622  2.0879 -0.8604 -0.6848
    4ALA    HB2   33  19.275   7.590  11.725  0.1070 -3.5547 -0.0916
    4ALA    HB3   34  19.120   7.555  11.799  0.2289  1.1507 -0.1913
    4ALA      C   35  18.985   7.770  11.628  0.2607 -0.8114  0.3509
    4ALA      O   36  18.987   7.792  11.509 -0.1201  0.4085 -0.5861
    5NME      N   37  18.875   7.761  11.704 -0.3081 -0.5718  0.3618
    5NME      H   38  18.883   7.723  11.797  4.3599  0.2387  0.5192
    5NME    CH3   39  18.743   7.756  11.643  0.3467  0.4019  0.0603
    5NME   HH31   40  18.727   7.653  11.611  0.2706  0.8892 -1.5265
    5NME   HH32   41  18.674   7.794  11.720  1.3354  2.1271  0.1400
    5NME   HH33   42  18.745   7.816  11.552  3.5335  0.0906 -0.1758
  20.91516  20.91516  20.91516
