Protein
   32
    1ACE   HH31    1  11.074   7.275  12.623  0.6237  0.2145  0.1902
    1ACE    CH3    2  11.024   7.259  12.528 -0.4115 -0.0026  0.7451
    1ACE   HH32    3  10.949   7.337  12.512 -1.8528 -1.4734  0.0203
    1ACE   HH33    4  10.963   7.170  12.537 -1.6360  0.6598 -0.5792
    1ACE      C    5  11.124   7.247  12.417 -0.0667  0.0476  0.3990
    1ACE      O    6  11.112   7.309  12.318 -0.4927 -0.2697  0.4751
    2ALA      N    7  11.232   7.179  12.441 -0.4483 -0.2354  0.1055
    2ALA      H    8  11.232   7.153  12.539 -0.0183  4.2987  1.5597
    2ALA     CA    9  11.349   7.175  12.357  0.2064 -0.2099 -0.2471
    2ALA     HA   10  11.322   7.214  12.259 -4.1721  2.9744  1.8901
    2ALA     CB   11  11.448   7.278  12.411 -0.1431  0.0907  0.4422
    2ALA    HB1   12  11.485   7.248  12.509  0.2378 -1.3099 -0.1157
    2ALA    HB2   13  11.529   7.273  12.338 -0.9195 -2.2095 -0.3822
    2ALA    HB3   14  11.395   7.373  12.415  0.8405  0.6059  2.1883
    2ALA      C   15  11.406   7.031  12.347  0.1123 -0.3955  0.0443
    2ALA      O   16  11.487   6.993  12.434 -0.1067 -0.3087 -0.0160
    3ALA      N   17  11.364   6.956  12.248 -0.3851  0.2106  0.4843
    3ALA      H   18  11.294   7.001  12.191  0.4762  0.4584 -0.3850
    3ALA     CA   19  11.393   6.815  12.221 -0.3919  0.1224  0.3134
    3ALA     HA   20  11.339   6.781  12.133 -1.0849  0.0552  0.7623
    3ALA     CB   21  11.543   6.797  12.196 -0.3003 -0.4063 -0.1673
    3ALA    HB1   22  11.565   6.703  12.146  1.9179  0.3637 -0.7640
    3ALA    HB2   23  11.580   6.878  12.135 -3.0867  0.9233 -0.2608
    3ALA    HB3   24  11.601   6.796  12.289 -0.0809 -2.2338 -0.3033
    3ALA      C   25  11.345   6.711  12.324 -0.2405 -0.0970 -1.0093
    3ALA      O   26  11.321   6.599  12.286  0.0437 -0.0069  0.3639
    4NME      N   27  11.340   6.748  12.455  0.0483 -0.0637 -0.3251
    4NME      H   28  11.389   6.835  12.467  0.6885 -0.5638  0.8868
    4NME    CH3   29  11.312   6.671  12.575  0.2908  0.4466 -0.4808
    4NME   HH31   30  11.209   6.635  12.577 -0.2667  1.9779  0.9415
    4NME   HH32   31  11.378   6.584  12.573  0.0982  0.2312  1.1787
    4NME   HH33   32  11.334   6.736  12.660 -0.3499 -2.0824  1.7535
  20.99041  20.99041  20.99041
