Protein
   60
    1ACE   HH31    1  22.394  16.351  20.503  0.0233 -0.7189  0.8147
    1ACE    CH3    2  22.471  16.277  20.479  0.4007 -0.1015  0.0525
    1ACE   HH32    3  22.450  16.183  20.530 -0.4602  0.9247  1.6919
    1ACE   HH33    4  22.474  16.258  20.372 -0.2354 -0.5102  0.0975
    1ACE      C    5  22.607  16.333  20.521  0.3707 -0.2684 -0.0826
    1ACE      O    6  22.677  16.258  20.591 -0.2744  0.1748  0.5931
    2TRP      N    7  22.651  16.450  20.478  0.6729 -0.2946  0.2216
    2TRP      H    8  22.745  16.474  20.506  0.5463  2.3353 -1.2519
    2TRP     CA    9  22.576  16.544  20.388 -0.2200 -0.0818  0.6996
    2TRP     HA   10  22.472  16.555  20.416 -0.2055  0.5025  0.5097
    2TRP     CB   11  22.630  16.689  20.415 -0.3760 -0.0972 -0.3061
    2TRP    HB1   12  22.613  16.713  20.520  0.8660 -0.1875 -0.0800
    2TRP    HB2   13  22.565  16.749  20.351 -2.2548 -1.6787 -0.0239
    2TRP     CG   14  22.776  16.723  20.394  0.5912 -0.3551  0.1772
    2TRP    CD1   15  22.824  16.814  20.303 -0.5972 -0.1052  0.1461
    2TRP    HD1   16  22.761  16.874  20.240 -0.5061  2.4537  2.3035
    2TRP    NE1   17  22.962  16.811  20.310 -0.3991  0.4255 -0.6375
    2TRP    HE1   18  23.018  16.853  20.237 -1.4755  2.0036 -0.6169
    2TRP    CE2   19  23.007  16.726  20.415 -0.6907 -0.0218  0.4281
    2TRP    CZ2   20  23.134  16.686  20.460 -0.4289 -0.3919  0.8666
    2TRP    HZ2   21  23.221  16.719  20.406 -1.0118 -2.5082 -1.5469
    2TRP    CH2   22  23.142  16.615  20.574 -0.0813 -0.0455 -0.8679
    2TRP    HH2   23  23.240  16.591  20.614  0.1464 -0.7810 -1.8442
    2TRP    CZ3   24  23.025  16.566  20.639 -1.1335 -0.6635  0.0094
    2TRP    HZ3   25  23.035  16.505  20.727  2.6476 -0.1626  0.0843
    2TRP    CE3   26  22.906  16.604  20.596  0.2784  0.2152 -0.0827
    2TRP    HE3   27  22.826  16.568  20.660  1.7568 -1.5689  0.8515
    2TRP    CD2   28  22.885  16.684  20.477  0.3083 -0.1101 -0.4099
    2TRP      C   29  22.578  16.506  20.239 -0.5345  0.3867  0.3993
    2TRP      O   30  22.476  16.530  20.176  0.3511  0.3457 -0.4664
    3TRP      N   31  22.680  16.443  20.177 -0.0567 -0.8738  0.0905
    3TRP      H   32  22.658  16.421  20.081 -1.9032  0.7683  0.0490
    3TRP     CA   33  22.816  16.414  20.214  0.2804 -0.3077 -0.1265
    3TRP     HA   34  22.859  16.490  20.279  1.0368 -0.4751 -0.4122
    3TRP     CB   35  22.903  16.407  20.093  0.0870  0.3963 -0.2343
    3TRP    HB1   36  23.001  16.371  20.125  0.6288  1.8700 -0.1696
    3TRP    HB2   37  22.863  16.334  20.023  0.3228 -0.0759  0.1156
    3TRP     CG   38  22.918  16.540  20.023  0.0052 -0.0077  0.1564
    3TRP    CD1   39  22.824  16.598  19.939 -0.5738  0.2828 -0.1511
    3TRP    HD1   40  22.727  16.551  19.930 -0.4303 -0.6942  2.5127
    3TRP    NE1   41  22.885  16.707  19.885 -0.2610 -0.3299 -0.0645
    3TRP    HE1   42  22.848  16.753  19.803 -1.0786 -0.1338  0.4031
    3TRP    CE2   43  22.992  16.745  19.949 -0.6218  0.0239  0.0470
    3TRP    CZ2   44  23.067  16.863  19.945  0.2412 -0.1789 -0.1548
    3TRP    HZ2   45  23.054  16.940  19.870  3.5933  0.7320  0.0454
    3TRP    CH2   46  23.194  16.876  20.009  1.0028 -0.0290 -0.1969
    3TRP    HH2   47  23.257  16.964  20.005 -0.5050  1.1812  1.4525
    3TRP    CZ3   48  23.233  16.763  20.072 -0.4205  0.3031 -0.5846
    3TRP    HZ3   49  23.323  16.768  20.133 -1.3529 -0.2942  0.9056
    3TRP    CE3   50  23.152  16.645  20.085 -0.1398 -0.4498  0.0359
    3TRP    HE3   51  23.195  16.562  20.139  1.8396 -0.5630 -1.6012
    3TRP    CD2   52  23.024  16.638  20.034  0.2303 -0.8007 -0.6399
    3TRP      C   53  22.840  16.294  20.301  0.8147  0.4843  0.9555
    3TRP      O   54  22.786  16.188  20.269 -0.4998  0.0792 -0.0200
    4NME      N   55  22.920  16.311  20.405  0.2925  0.1142  0.4460
    4NME      H   56  22.969  16.397  20.422  0.4578  0.9755 -3.4221
    4NME    CH3   57  22.978  16.200  20.479  0.3091 -0.0818 -0.5830
    4NME   HH31   58  23.070  16.155  20.441  1.0392  0.4943  0.4244
    4NME   HH32   59  23.003  16.239  20.578  1.0043 -0.7103 -0.5029
    4NME   HH33   60  22.908  16.118  20.494  0.4757 -0.0144  0.7301
  41.12396  41.12396  41.12396
