Protein
   42
    1ACE   HH31    1  10.043  13.574   8.609  0.9555 -1.9490  0.6324
    1ACE    CH3    2   9.956  13.509   8.625 -0.2125 -0.5604  0.1690
    1ACE   HH32    3   9.910  13.494   8.527 -1.0846 -0.9109  0.6246
    1ACE   HH33    4   9.883  13.563   8.685  0.3377  0.2788  0.0893
    1ACE      C    5   9.992  13.391   8.703 -0.0901  0.5387  0.3187
    1ACE      O    6   9.926  13.351   8.793 -0.2968  0.3746  0.4947
    2ALA      N    7  10.105  13.327   8.663 -0.0193 -0.2966  0.1390
    2ALA      H    8  10.161  13.384   8.602  0.0108 -0.3560  0.1086
    2ALA     CA    9  10.162  13.207   8.720  0.1996  0.2462  0.1886
    2ALA     HA   10  10.091  13.155   8.783 -0.0102 -0.1121 -0.3290
    2ALA     CB   11  10.181  13.111   8.606  0.8626 -0.6036  1.0484
    2ALA    HB1   12  10.092  13.098   8.544  0.8241 -1.1800  1.2114
    2ALA    HB2   13  10.247  13.141   8.525 -2.2313  0.1117 -1.3805
    2ALA    HB3   14  10.203  13.008   8.635  2.3239 -0.6838 -0.1607
    2ALA      C   15  10.295  13.250   8.795  0.0085 -0.0844 -0.4224
    2ALA      O   16  10.402  13.233   8.739 -0.3780 -0.2834 -0.8084
    3ALA      N   17  10.283  13.316   8.913 -0.6055 -0.2401  0.0083
    3ALA      H   18  10.358  13.382   8.929  2.5380 -2.8347 -2.7297
    3ALA     CA   19  10.169  13.320   9.002  0.2915 -0.4324  0.1260
    3ALA     HA   20  10.074  13.279   8.966 -0.4159  0.5783  0.8246
    3ALA     CB   21  10.201  13.240   9.127 -0.6980  0.0958 -0.2471
    3ALA    HB1   22  10.216  13.136   9.100  0.5060  0.4541 -1.0888
    3ALA    HB2   23  10.296  13.273   9.169 -1.8246 -1.4162  4.0178
    3ALA    HB3   24  10.120  13.254   9.199  0.7058 -0.8357  1.6186
    3ALA      C   25  10.143  13.469   9.042  0.0707  0.9112  0.0404
    3ALA      O   26  10.237  13.534   9.081 -0.3243 -0.1316  0.1212
    4ALA      N   27  10.020  13.517   9.033  0.8306  0.2923 -0.5539
    4ALA      H   28   9.957  13.444   9.005  0.9017 -0.8954  1.9429
    4ALA     CA   29   9.964  13.652   9.030  0.6533  0.0889 -0.2539
    4ALA     HA   30   9.859  13.646   9.001 -0.6346  2.2318  3.2641
    4ALA     CB   31   9.967  13.698   9.175 -0.2899  0.4853  0.8458
    4ALA    HB1   32  10.063  13.702   9.226 -1.2985  1.1281  2.8314
    4ALA    HB2   33   9.925  13.796   9.199  1.0440  0.6113  2.8049
    4ALA    HB3   34   9.908  13.621   9.226 -1.2837  2.0495  2.2082
    4ALA      C   35  10.029  13.759   8.946 -0.5938  0.0436 -0.0205
    4ALA      O   36   9.959  13.838   8.887  0.2414  0.4979  0.2233
    5NME      N   37  10.162  13.765   8.930 -0.2550  0.2007  0.2797
    5NME      H   38  10.218  13.709   8.992  3.6046  0.6718 -2.3922
    5NME    CH3   39  10.229  13.865   8.849 -0.0911 -0.7172 -0.3733
    5NME   HH31   40  10.181  13.885   8.753 -0.8584 -2.8384 -0.4722
    5NME   HH32   41  10.239  13.951   8.915 -0.5790 -1.9671  1.4198
    5NME   HH33   42  10.332  13.841   8.821  0.3446  1.3123 -0.6876
  20.91516  20.91516  20.91516
