Protein
   42
    1ACE   HH31    1  16.959   8.049  12.541  0.9469  1.5908 -0.8137
    1ACE    CH3    2  16.898   8.074  12.628  0.1729 -0.3712 -0.7476
    1ACE   HH32    3  16.827   7.993  12.644  0.3416 -0.0923  1.8230
    1ACE   HH33    4  16.844   8.165  12.605 -1.2045 -0.3496  2.1532
    1ACE      C    5  16.974   8.081  12.764 -0.8180 -0.3956 -0.0651
    1ACE      O    6  16.972   7.991  12.842  0.2377 -0.2905 -0.0506
    2ALA      N    7  17.054   8.190  12.788 -0.0569 -0.3432 -0.0986
    2ALA      H    8  17.064   8.256  12.712  1.4371 -0.5612 -0.1053
    2ALA     CA    9  17.119   8.215  12.917  0.4551 -0.8952 -1.4744
    2ALA     HA   10  17.207   8.271  12.886  0.3683  0.2786  0.2727
    2ALA     CB   11  17.029   8.299  13.011 -0.1099  0.8640  0.1058
    2ALA    HB1   12  17.086   8.325  13.100 -0.5839 -2.9846  1.7031
    2ALA    HB2   13  16.956   8.370  12.971 -0.4112  1.4608  1.6641
    2ALA    HB3   14  16.953   8.235  13.056 -0.9175  1.3623 -0.5037
    2ALA      C   15  17.189   8.096  12.991  0.4846  0.1333  0.1757
    2ALA      O   16  17.179   8.076  13.113  0.2802  0.3141 -0.2317
    3ALA      N   17  17.274   8.020  12.923 -0.6299 -0.5811 -0.0755
    3ALA      H   18  17.320   7.960  12.990 -3.9131 -1.2114  1.8622
    3ALA     CA   19  17.326   8.038  12.794  0.1048 -0.4136  0.0411
    3ALA     HA   20  17.279   8.121  12.741  0.9162 -0.2330 -0.4245
    3ALA     CB   21  17.475   8.082  12.808 -0.8680  0.3636 -0.3888
    3ALA    HB1   22  17.476   8.160  12.884  0.4962 -0.2921  0.2780
    3ALA    HB2   23  17.544   8.006  12.845  0.4958  1.5859 -0.3199
    3ALA    HB3   24  17.522   8.130  12.722 -0.4654 -1.6303 -1.3333
    3ALA      C   25  17.316   7.911  12.700 -0.7465 -0.3522 -0.2859
    3ALA      O   26  17.342   7.920  12.576  0.4983 -0.0209 -0.0158
    4ALA      N   27  17.290   7.788  12.756 -0.7379 -0.6839 -0.8014
    4ALA      H   28  17.264   7.786  12.854 -2.7880  0.4848 -1.2622
    4ALA     CA   29  17.300   7.661  12.684  0.0267 -0.3132  0.1778
    4ALA     HA   30  17.333   7.676  12.582 -0.1115  0.3965  0.2358
    4ALA     CB   31  17.407   7.589  12.755 -0.5357  0.2129 -0.9098
    4ALA    HB1   32  17.424   7.494  12.703 -0.4961 -1.0871  1.3858
    4ALA    HB2   33  17.504   7.638  12.759 -1.4951  2.3523 -2.1587
    4ALA    HB3   34  17.364   7.563  12.852 -1.8537  1.2622 -1.1861
    4ALA      C   35  17.167   7.599  12.687  0.2992 -0.2444  0.0270
    4ALA      O   36  17.155   7.481  12.650  0.4473  0.1309 -0.7821
    5NME      N   37  17.063   7.669  12.734  0.6945 -0.0073 -0.7698
    5NME      H   38  17.077   7.761  12.773 -0.1589  0.2635 -1.0758
    5NME    CH3   39  16.931   7.605  12.764  0.5150  0.6518  0.1244
    5NME   HH31   40  16.864   7.593  12.679  1.3480 -1.3232 -0.3073
    5NME   HH32   41  16.958   7.504  12.794  0.9756  0.9239  0.6584
    5NME   HH33   42  16.881   7.654  12.848  0.4833 -0.1547  0.5779
  20.91516  20.91516  20.91516
