Protein
   60
    1ACE   HH31    1  20.845  22.970  17.522 -0.2276 -1.3519 -0.9457
    1ACE    CH3    2  20.761  22.916  17.565 -0.4693  0.0963  0.5439
    1ACE   HH32    3  20.727  22.975  17.650  1.8543  0.6412  1.1557
    1ACE   HH33    4  20.687  22.907  17.486  0.9011 -0.4044 -0.7263
    1ACE      C    5  20.806  22.774  17.589 -0.7386  0.6198 -1.2945
    1ACE      O    6  20.915  22.734  17.558 -0.3424  0.2765 -0.1142
    2TRP      N    7  20.720  22.695  17.660 -0.1224 -0.4507  0.6012
    2TRP      H    8  20.758  22.607  17.693 -1.6338 -0.7972  1.5556
    2TRP     CA    9  20.585  22.731  17.700 -0.0437  0.7199  0.4449
    2TRP     HA   10  20.546  22.824  17.658  0.9430  1.2151  0.5849
    2TRP     CB   11  20.490  22.614  17.656  0.3461 -0.1379  0.3750
    2TRP    HB1   12  20.529  22.515  17.681 -0.4971 -1.5534 -3.2227
    2TRP    HB2   13  20.485  22.607  17.547  2.6841 -2.5570  0.3030
    2TRP     CG   14  20.349  22.630  17.707  0.3715 -0.7774 -0.3145
    2TRP    CD1   15  20.308  22.583  17.827  0.3936  0.0166 -0.6781
    2TRP    HD1   16  20.370  22.525  17.894  0.0421  0.7158  0.2787
    2TRP    NE1   17  20.185  22.627  17.863  0.4020  0.0525  0.1542
    2TRP    HE1   18  20.142  22.626  17.955  2.4426  0.7181  1.1973
    2TRP    CE2   19  20.135  22.697  17.759 -0.1516 -0.2946  0.7292
    2TRP    CZ2   20  20.006  22.761  17.739 -0.4088  0.3077  0.2276
    2TRP    HZ2   21  19.940  22.762  17.825  0.6642  0.5083  1.0746
    2TRP    CH2   22  19.983  22.839  17.621 -0.7349  0.7079  0.0712
    2TRP    HH2   23  19.891  22.889  17.597 -0.4689 -0.0429 -3.0244
    2TRP    CZ3   24  20.091  22.861  17.534 -0.7725  0.1338 -0.0881
    2TRP    HZ3   25  20.080  22.927  17.450  0.9659 -0.9336 -1.2293
    2TRP    CE3   26  20.212  22.788  17.546 -0.1902 -0.4586  0.1914
    2TRP    HE3   27  20.285  22.802  17.468 -0.3562  1.5239  0.3186
    2TRP    CD2   28  20.237  22.710  17.660  0.0737 -0.2934  0.7427
    2TRP      C   29  20.596  22.755  17.856  0.0342  0.2429  0.8066
    2TRP      O   30  20.668  22.673  17.914 -0.1554  0.2461 -0.3636
    3TRP      N   31  20.532  22.859  17.915  0.4604 -0.2107 -0.7004
    3TRP      H   32  20.545  22.873  18.014  0.5408 -2.2111 -0.3837
    3TRP     CA   33  20.424  22.943  17.862  0.5358  0.0831  1.1478
    3TRP     HA   34  20.389  22.894  17.771  2.7258  0.8506 -0.1660
    3TRP     CB   35  20.477  23.077  17.801 -0.2168  0.0344 -0.7899
    3TRP    HB1   36  20.527  23.135  17.879 -2.4144 -1.9585  2.3671
    3TRP    HB2   37  20.552  23.061  17.724  0.0177  0.9475 -0.7663
    3TRP     CG   38  20.361  23.149  17.739 -0.6091 -0.3831 -0.1465
    3TRP    CD1   39  20.285  23.239  17.807 -0.1485  0.0725 -0.0844
    3TRP    HD1   40  20.303  23.279  17.906 -0.8877 -0.6561  0.3628
    3TRP    NE1   41  20.196  23.296  17.724  0.1377  0.2325 -0.1675
    3TRP    HE1   42  20.133  23.373  17.740 -0.3997  0.0112 -1.0855
    3TRP    CE2   43  20.202  23.240  17.599 -0.1486  0.1196  0.5539
    3TRP    CZ2   44  20.127  23.265  17.477  0.1687 -0.3108  0.8444
    3TRP    HZ2   45  20.048  23.338  17.482  1.7341  1.3799  2.5762
    3TRP    CH2   46  20.163  23.202  17.354  0.4369  0.3809 -0.2898
    3TRP    HH2   47  20.097  23.202  17.269  0.6121 -2.2718 -0.5144
    3TRP    CZ3   48  20.270  23.112  17.355 -0.1645 -0.3172 -0.8448
    3TRP    HZ3   49  20.305  23.062  17.266  1.8922  0.7467 -0.6846
    3TRP    CE3   50  20.350  23.092  17.473 -0.1140 -0.5014  0.6994
    3TRP    HE3   51  20.439  23.032  17.465 -0.6827 -1.4895  1.4150
    3TRP    CD2   52  20.317  23.149  17.599  0.1675 -0.1754 -1.1513
    3TRP      C   53  20.306  22.966  17.965  0.4936 -0.3452  0.2951
    3TRP      O   54  20.320  22.965  18.081 -0.3938  0.1786  0.6273
    4NME      N   55  20.179  22.979  17.921  0.0726  0.4612  0.5557
    4NME      H   56  20.165  22.975  17.821  0.7995  0.5148  0.4415
    4NME    CH3   57  20.059  23.017  18.000 -0.3891  0.5409 -0.5914
    4NME   HH31   58  20.058  22.950  18.086  0.1810 -0.7613 -1.5742
    4NME   HH32   59  20.064  23.117  18.044  1.7464 -0.1795  0.8909
    4NME   HH33   60  19.978  22.992  17.930  0.0007 -0.3859 -0.7279
  41.12396  41.12396  41.12396
