Protein
   60
    1ACE   HH31    1  22.862  19.746  18.924  1.1403  0.1582  1.5493
    1ACE    CH3    2  22.926  19.808  18.862 -0.4620  0.3431 -0.0193
    1ACE   HH32    3  22.963  19.890  18.923 -1.7095  1.7691 -1.1047
    1ACE   HH33    4  23.012  19.745  18.840  0.4874  1.8123 -0.6581
    1ACE      C    5  22.866  19.863  18.734  0.5714  0.6817  0.3205
    1ACE      O    6  22.945  19.877  18.640 -0.7980  0.1934 -0.0115
    2TRP      N    7  22.738  19.889  18.722  0.4597 -0.2064 -0.4781
    2TRP      H    8  22.702  19.915  18.631 -0.6084  1.8489  0.4424
    2TRP     CA    9  22.624  19.845  18.809  0.0105 -0.0377 -0.5611
    2TRP     HA   10  22.655  19.756  18.864  2.0930  1.3099  0.5730
    2TRP     CB   11  22.607  19.947  18.930  0.9821 -0.4020  0.3427
    2TRP    HB1   12  22.517  20.003  18.906  0.0515 -2.5671 -1.6050
    2TRP    HB2   13  22.698  20.007  18.932  2.7316 -2.8611  2.5423
    2TRP     CG   14  22.587  19.898  19.072  0.4437  0.6516  0.0863
    2TRP    CD1   15  22.648  19.796  19.142 -0.5839 -0.2062  0.6826
    2TRP    HD1   16  22.713  19.721  19.098  0.0363  0.4465  0.4706
    2TRP    NE1   17  22.596  19.786  19.269  0.2085  0.1271  0.1365
    2TRP    HE1   18  22.615  19.713  19.336  0.0408  0.3167  0.3901
    2TRP    CE2   19  22.486  19.870  19.284 -0.0875 -0.8093 -0.3615
    2TRP    CZ2   20  22.383  19.892  19.380 -1.0882  0.4147 -0.1993
    2TRP    HZ2   21  22.392  19.845  19.477  3.2060  0.7680 -0.2018
    2TRP    CH2   22  22.281  19.980  19.359  0.2732  0.4680 -0.0854
    2TRP    HH2   23  22.209  19.997  19.438 -0.5123  3.0036 -1.2263
    2TRP    CZ3   24  22.276  20.056  19.239  0.5467  0.3288 -0.0171
    2TRP    HZ3   25  22.204  20.134  19.226  0.3831  0.1807 -0.0195
    2TRP    CE3   26  22.382  20.051  19.149 -0.0019  0.3490  0.7521
    2TRP    HE3   27  22.380  20.105  19.055  2.0536 -0.5230  0.1480
    2TRP    CD2   28  22.480  19.948  19.158  0.0758  0.0809  0.5238
    2TRP      C   29  22.495  19.806  18.734 -0.6842 -0.2397  0.2731
    2TRP      O   30  22.473  19.863  18.625  0.4023  0.0620 -0.2638
    3TRP      N   31  22.404  19.723  18.782 -0.0192  0.0983 -0.0149
    3TRP      H   32  22.326  19.711  18.719  0.1188  0.4239 -0.2474
    3TRP     CA   33  22.398  19.650  18.907  0.2235 -0.5411 -0.0960
    3TRP     HA   34  22.469  19.687  18.980  0.1290 -0.8381  0.1557
    3TRP     CB   35  22.446  19.508  18.877 -0.7968 -0.7368 -0.4791
    3TRP    HB1   36  22.432  19.453  18.970 -0.4347 -1.0210 -0.5808
    3TRP    HB2   37  22.389  19.456  18.800 -0.0960 -0.2478 -1.3425
    3TRP     CG   38  22.591  19.499  18.832  0.2828 -0.3276  0.1873
    3TRP    CD1   39  22.636  19.505  18.708 -0.4188  0.9810 -0.5277
    3TRP    HD1   40  22.578  19.510  18.616  1.0984  1.5716 -1.4939
    3TRP    NE1   41  22.777  19.498  18.710 -0.3911  0.3080 -0.3784
    3TRP    HE1   42  22.838  19.513  18.630  0.9423 -0.8213  0.3895
    3TRP    CE2   43  22.823  19.491  18.842  0.5607 -0.4398  0.0723
    3TRP    CZ2   44  22.950  19.470  18.896 -0.2445 -0.5965 -0.0705
    3TRP    HZ2   45  23.039  19.468  18.836 -0.1066  0.0447  0.1050
    3TRP    CH2   46  22.962  19.468  19.038 -0.2460  0.0158  0.9467
    3TRP    HH2   47  23.061  19.468  19.081  0.6889 -0.6228 -1.0976
    3TRP    CZ3   48  22.843  19.469  19.118 -0.6042 -0.2515  0.2595
    3TRP    HZ3   49  22.848  19.466  19.225 -1.4923 -0.3297  0.3133
    3TRP    CE3   50  22.719  19.477  19.051 -0.0448 -0.3471 -0.0782
    3TRP    HE3   51  22.631  19.477  19.115 -0.1779  1.6963 -0.2138
    3TRP    CD2   52  22.706  19.496  18.914  0.6401 -0.3521  0.1145
    3TRP      C   53  22.252  19.658  18.957  0.5592 -0.3827 -0.4770
    3TRP      O   54  22.161  19.653  18.878 -0.5158  0.4858  0.2757
    4NME      N   55  22.235  19.689  19.087  0.0499  0.0007  0.3129
    4NME      H   56  22.318  19.690  19.145  0.5407 -0.5724 -0.3648
    4NME    CH3   57  22.107  19.711  19.149  0.2934  0.8291  0.0303
    4NME   HH31   58  22.118  19.726  19.257 -0.6062 -0.2903  0.3057
    4NME   HH32   59  22.062  19.797  19.101 -1.5335 -0.5335 -0.8234
    4NME   HH33   60  22.047  19.621  19.132  0.4098  0.9728 -1.2569
  41.12396  41.12396  41.12396
