Protein
   22
    1ACE   HH31    1   2.811   4.057   0.453 -1.5971  1.4312  1.3463
    1ACE    CH3    2   2.872   4.110   0.526  0.4523  0.4048  0.4560
    1ACE   HH32    3   2.926   4.179   0.461  1.4163 -0.0340  0.7782
    1ACE   HH33    4   2.936   4.037   0.574 -0.5542 -1.6302 -1.1338
    1ACE      C    5   2.787   4.191   0.625 -0.2321 -0.0682 -0.3026
    1ACE      O    6   2.696   4.258   0.581 -0.0050  0.0828  0.0448
    2ALA      N    7   2.820   4.193   0.753 -0.1525  0.4245 -0.5796
    2ALA      H    8   2.899   4.136   0.781 -0.3497 -0.4881 -1.8037
    2ALA     CA    9   2.734   4.241   0.865  0.0595 -0.1401  0.4430
    2ALA     HA   10   2.767   4.188   0.954  2.0461  0.7916  0.3135
    2ALA     CB   11   2.764   4.392   0.889 -1.0275 -0.2542 -0.3217
    2ALA    HB1   12   2.730   4.424   0.987 -0.0471  0.2765 -0.1376
    2ALA    HB2   13   2.873   4.398   0.899 -1.1137 -0.9782  1.2779
    2ALA    HB3   14   2.722   4.455   0.810  0.0084  3.3307  1.7450
    2ALA      C   15   2.587   4.203   0.834  0.5655  0.8555  0.2150
    2ALA      O   16   2.557   4.084   0.840 -0.4430  0.2483 -0.8698
    3NME      N   17   2.501   4.302   0.830  0.4990  0.1007 -0.2053
    3NME      H   18   2.536   4.392   0.861 -2.8461  1.1001  1.0405
    3NME    CH3   19   2.358   4.281   0.820 -0.3539 -0.6576 -0.9704
    3NME   HH31   20   2.307   4.375   0.841  2.6891  1.3141 -1.7480
    3NME   HH32   21   2.323   4.246   0.723 -0.6613 -3.3703  0.0220
    3NME   HH33   22   2.332   4.204   0.892  0.8412 -1.0734 -0.9700
  10.72160  10.72160  10.72160
