Protein
   42
    1ACE   HH31    1  14.816   4.049  10.471  0.6511  2.0665  2.0029
    1ACE    CH3    2  14.755   3.982  10.531 -0.0642  0.1620 -0.6762
    1ACE   HH32    3  14.801   3.986  10.629  2.4029 -1.4607 -1.6945
    1ACE   HH33    4  14.761   3.879  10.496 -0.0159  0.9879 -3.3041
    1ACE      C    5  14.610   4.040  10.534 -0.0072  0.2879 -0.1719
    1ACE      O    6  14.545   4.036  10.427 -0.0603  0.1384 -0.1202
    2ALA      N    7  14.559   4.093  10.645 -0.3724 -0.3453 -0.3683
    2ALA      H    8  14.621   4.097  10.724  0.4573  1.0891 -1.0537
    2ALA     CA    9  14.449   4.183  10.636  0.3380  0.2148 -0.6450
    2ALA     HA   10  14.369   4.128  10.587 -0.8292  2.8280 -1.8676
    2ALA     CB   11  14.427   4.227  10.787  0.1460  0.5006 -0.2915
    2ALA    HB1   12  14.353   4.307  10.782  1.4685  1.6924 -2.7540
    2ALA    HB2   13  14.401   4.142  10.849 -1.7307 -0.4377 -2.2191
    2ALA    HB3   14  14.516   4.278  10.825  0.0558 -0.1072  0.7211
    2ALA      C   15  14.483   4.307  10.552 -0.5727 -0.5217  0.7768
    2ALA      O   16  14.592   4.362  10.562  0.0673  0.1006  0.2565
    3ALA      N   17  14.398   4.365  10.465  0.2101  0.3195 -0.1619
    3ALA      H   18  14.453   4.429  10.408  0.8432 -0.0612  0.0047
    3ALA     CA   19  14.252   4.354  10.442  0.2207 -0.3401 -0.0260
    3ALA     HA   20  14.204   4.337  10.539 -0.1281 -0.1175 -0.1571
    3ALA     CB   21  14.203   4.484  10.378 -0.5016  0.5790 -0.4933
    3ALA    HB1   22  14.100   4.505  10.407  0.1067  2.1102  0.6874
    3ALA    HB2   23  14.252   4.564  10.432  0.7085 -1.6437  1.8908
    3ALA    HB3   24  14.236   4.488  10.274  0.2822 -1.9580 -0.3869
    3ALA      C   25  14.203   4.235  10.358 -0.1824 -0.0241 -0.8466
    3ALA      O   26  14.086   4.224  10.322  1.0219 -0.1909 -0.0429
    4ALA      N   27  14.293   4.143  10.321  0.2231  0.2448  0.0084
    4ALA      H   28  14.388   4.140  10.355  0.0110 -3.5160  0.6076
    4ALA     CA   29  14.257   4.046  10.220  0.3258  0.8291  0.1274
    4ALA     HA   30  14.161   4.078  10.182  0.0724  2.4419  1.9162
    4ALA     CB   31  14.347   4.072  10.096  0.3333 -0.7297  0.4258
    4ALA    HB1   32  14.437   4.012  10.107  1.6948  1.3503  1.4015
    4ALA    HB2   33  14.289   4.056  10.005 -1.4629  0.3057  1.3373
    4ALA    HB3   34  14.372   4.178  10.094 -1.3415 -0.3071 -1.2276
    4ALA      C   35  14.255   3.903  10.265 -0.2189  0.1517  0.4598
    4ALA      O   36  14.179   3.824  10.205  0.1748 -0.6951  1.0586
    5NME      N   37  14.325   3.873  10.374  0.0917  0.9185 -0.2997
    5NME      H   38  14.371   3.954  10.411 -0.5934  1.6270 -0.9624
    5NME    CH3   39  14.338   3.747  10.450  0.1262  0.7542 -0.5450
    5NME   HH31   40  14.350   3.658  10.389  2.2179  1.6411 -1.5047
    5NME   HH32   41  14.423   3.739  10.518  1.8383 -0.0341 -2.6725
    5NME   HH33   42  14.252   3.735  10.516  2.0911 -1.6126  1.8268
  20.91516  20.91516  20.91516
