Protein
   22
    1ACE   HH31    1   7.308   7.397   2.089 -0.4638  0.5168 -0.6999
    1ACE    CH3    2   7.409   7.430   2.110 -0.1182 -0.6775 -0.4092
    1ACE   HH32    3   7.475   7.412   2.026  1.4452 -0.1285  0.6429
    1ACE   HH33    4   7.448   7.379   2.198 -0.7716  1.0192  0.9451
    1ACE      C    5   7.408   7.584   2.137  0.2744  1.0294  0.1036
    1ACE      O    6   7.306   7.648   2.105 -0.4159 -0.2357  0.0444
    2ALA      N    7   7.526   7.636   2.173 -0.2157  0.1630 -0.7975
    2ALA      H    8   7.605   7.573   2.167  2.0126  2.8067 -0.8575
    2ALA     CA    9   7.562   7.777   2.187  0.4730 -0.5949  0.5869
    2ALA     HA   10   7.666   7.787   2.218  0.9688  2.4505 -1.5785
    2ALA     CB   11   7.579   7.850   2.054 -0.1072  0.5232  0.2412
    2ALA    HB1   12   7.477   7.864   2.018 -1.3428 -0.9619  2.8596
    2ALA    HB2   13   7.603   7.953   2.079  0.2144  0.9030 -1.4798
    2ALA    HB3   14   7.648   7.799   1.987  1.0526  2.0907  0.1974
    2ALA      C   15   7.472   7.857   2.291 -0.5448 -0.4082 -0.1171
    2ALA      O   16   7.507   7.969   2.330  0.0203  0.1594  0.3423
    3NME      N   17   7.356   7.807   2.335  0.1126  0.3925 -0.4632
    3NME      H   18   7.323   7.726   2.284 -0.8917 -0.2464  1.0990
    3NME    CH3   19   7.266   7.858   2.432  0.3370 -0.9496 -0.1534
    3NME   HH31   20   7.163   7.825   2.424  0.1047 -0.3535  0.3014
    3NME   HH32   21   7.298   7.811   2.525  1.0866  0.9590  0.5937
    3NME   HH33   22   7.270   7.967   2.436  0.1413 -0.9285 -0.4434
  10.72160  10.72160  10.72160
