Protein
   42
    1ACE   HH31    1   8.328  15.926   6.901 -1.2444  2.1867 -3.4869
    1ACE    CH3    2   8.353  16.013   6.961 -0.3080 -0.5112  0.3218
    1ACE   HH32    3   8.455  16.049   6.954 -0.8722  1.8145  2.3863
    1ACE   HH33    4   8.326  16.000   7.066  1.5694  0.8122  1.0337
    1ACE      C    5   8.268  16.119   6.903 -0.1043  0.7102  0.2891
    1ACE      O    6   8.198  16.188   6.976  0.0214 -0.1388  0.3090
    2ALA      N    7   8.284  16.123   6.771  0.1259 -1.1848  0.5055
    2ALA      H    8   8.350  16.064   6.723  0.6444 -0.8357  0.7768
    2ALA     CA    9   8.235  16.237   6.689  0.1908 -0.3303 -0.9692
    2ALA     HA   10   8.190  16.301   6.766  0.9356  0.0973 -0.8764
    2ALA     CB   11   8.359  16.306   6.633  0.0558 -0.0753 -0.2549
    2ALA    HB1   12   8.442  16.304   6.703 -0.1498  1.9581  0.1234
    2ALA    HB2   13   8.392  16.254   6.543  0.2971 -2.4820  1.1321
    2ALA    HB3   14   8.338  16.410   6.609 -1.6514  0.6956  3.8420
    2ALA      C   15   8.134  16.185   6.581  0.1765 -0.2128  0.4119
    2ALA      O   16   8.161  16.198   6.458  0.3830  0.2011  0.1153
    3ALA      N   17   8.019  16.135   6.621 -0.1516  0.1864 -0.0609
    3ALA      H   18   7.967  16.100   6.541  1.1324  0.9540 -1.2655
    3ALA     CA   19   7.954  16.147   6.753 -0.6687  0.0056 -0.0872
    3ALA     HA   20   8.022  16.188   6.827  0.0560  2.0972 -1.8256
    3ALA     CB   21   7.842  16.255   6.747 -0.2670 -0.0840  0.0408
    3ALA    HB1   22   7.879  16.337   6.686  1.0897 -0.6257  0.1145
    3ALA    HB2   23   7.755  16.221   6.690  0.4924 -0.5514 -0.8824
    3ALA    HB3   24   7.806  16.298   6.841 -0.0360  0.3105 -0.0419
    3ALA      C   25   7.918  16.014   6.805 -0.2333 -0.6769 -0.4463
    3ALA      O   26   7.872  15.931   6.732  0.1867 -0.2288 -0.1652
    4ALA      N   27   7.944  15.989   6.932  0.5779  0.4410  0.0229
    4ALA      H   28   7.978  16.065   6.989  0.4210  0.9691 -0.5765
    4ALA     CA   29   7.902  15.871   7.011  0.2491 -0.4954 -0.4784
    4ALA     HA   30   7.981  15.797   6.996  1.8739  1.5225 -2.7584
    4ALA     CB   31   7.912  15.903   7.162 -0.1317 -0.0205  0.6110
    4ALA    HB1   32   7.986  15.981   7.179  1.8802 -1.7987  0.3633
    4ALA    HB2   33   7.820  15.948   7.202  0.7132  2.3663  0.0314
    4ALA    HB3   34   7.928  15.814   7.222 -1.0962 -1.8980 -1.7320
    4ALA      C   35   7.771  15.792   6.974 -0.0885  0.2309  0.0885
    4ALA      O   36   7.753  15.681   7.018  0.3069  0.2672 -0.1475
    5NME      N   37   7.673  15.861   6.917  0.7939 -0.5954 -0.1443
    5NME      H   38   7.690  15.955   6.884 -2.4212 -0.4622 -1.6961
    5NME    CH3   39   7.538  15.809   6.915 -0.6015  0.1556  0.2862
    5NME   HH31   40   7.523  15.707   6.879 -2.7176  0.4298  0.2575
    5NME   HH32   41   7.492  15.821   7.013  2.1441 -1.2914  1.8697
    5NME   HH33   42   7.478  15.884   6.864 -0.5737 -0.5607 -0.8319
  20.91516  20.91516  20.91516
