Protein
   32
    1ACE   HH31    1  15.118   8.510   7.065 -0.7611  1.2839 -1.0208
    1ACE    CH3    2  15.047   8.474   6.990 -0.0774  0.0287 -1.0909
    1ACE   HH32    3  15.054   8.529   6.896  2.1027  0.1530 -0.9252
    1ACE   HH33    4  14.951   8.485   7.039  1.0522 -0.0657  1.3091
    1ACE      C    5  15.067   8.326   6.964  0.0583  0.1601  0.4335
    1ACE      O    6  14.970   8.247   6.949 -0.5005  0.2887 -0.0695
    2ALA      N    7  15.192   8.288   6.957 -0.3638  0.0366  0.2813
    2ALA      H    8  15.261   8.361   6.954 -0.2863  0.0937  2.1281
    2ALA     CA    9  15.240   8.155   6.956 -0.2935  0.6351  0.5962
    2ALA     HA   10  15.191   8.093   6.881  1.4476 -1.8983  1.4134
    2ALA     CB   11  15.393   8.152   6.915  0.6441  0.3852 -0.1926
    2ALA    HB1   12  15.451   8.187   7.001 -0.5839  1.8120  0.0866
    2ALA    HB2   13  15.434   8.056   6.882  0.8814  0.4773 -0.1661
    2ALA    HB3   14  15.400   8.217   6.828 -1.4560  0.2555 -0.5192
    2ALA      C   15  15.220   8.082   7.090  0.0031 -1.0129  0.2602
    2ALA      O   16  15.302   8.077   7.178  0.2246 -0.1961  0.5067
    3ALA      N   17  15.094   8.046   7.113  0.2319  0.0482 -0.4327
    3ALA      H   18  15.025   8.052   7.039  0.9310  2.4435 -0.9707
    3ALA     CA   19  15.051   8.002   7.247  0.7677 -0.0908  0.4224
    3ALA     HA   20  14.945   8.025   7.235  0.8227  0.0476  0.1218
    3ALA     CB   21  15.079   7.849   7.249  0.2041 -0.6203  0.5543
    3ALA    HB1   22  15.186   7.833   7.235  0.1987  0.6803 -1.3226
    3ALA    HB2   23  15.045   7.811   7.345 -1.4371 -0.8204 -0.0614
    3ALA    HB3   24  15.022   7.802   7.169  0.0861  1.2136 -0.5052
    3ALA      C   25  15.101   8.086   7.365  0.7163 -0.0318  0.0830
    3ALA      O   26  15.069   8.202   7.379 -0.2128  0.0408  0.7429
    4NME      N   27  15.188   8.030   7.450 -0.1905  0.5484  0.2009
    4NME      H   28  15.191   7.930   7.436 -0.1359  0.7181 -1.1885
    4NME    CH3   29  15.249   8.093   7.563 -0.2250 -0.5035  0.3746
    4NME   HH31   30  15.171   8.121   7.633  0.5159  1.7767  0.3850
    4NME   HH32   31  15.325   8.026   7.605  1.6111  0.7253 -0.8289
    4NME   HH33   32  15.303   8.180   7.525 -0.4596 -1.4327 -2.3869
  20.99041  20.99041  20.99041
