Protein
   22
    1ACE   HH31    1   6.993   1.511   5.005 -0.0743 -1.1325 -3.6270
    1ACE    CH3    2   6.889   1.491   5.029  0.5560 -0.6482  0.1924
    1ACE   HH32    3   6.839   1.477   4.933 -1.8274  0.0136  1.2669
    1ACE   HH33    4   6.848   1.574   5.086 -0.8508  0.2091 -1.9537
    1ACE      C    5   6.883   1.371   5.114  0.0232 -0.1574  0.2851
    1ACE      O    6   6.806   1.284   5.081 -0.0441  0.5741 -0.3603
    2ALA      N    7   6.979   1.352   5.200  0.4439 -0.4306  0.5401
    2ALA      H    8   7.042   1.430   5.211  0.2375 -0.0898 -0.5037
    2ALA     CA    9   7.007   1.238   5.283  0.1758  0.5041 -0.3160
    2ALA     HA   10   7.030   1.155   5.217 -0.0693  1.6530 -1.8919
    2ALA     CB   11   7.138   1.277   5.366  0.6931 -0.0402  0.1750
    2ALA    HB1   12   7.225   1.270   5.302  0.6701  0.0508  0.1333
    2ALA    HB2   13   7.119   1.373   5.413  0.1783  1.3861 -2.7430
    2ALA    HB3   14   7.143   1.197   5.440  1.6768 -0.5840 -0.4622
    2ALA      C   15   6.875   1.200   5.359 -0.5862 -0.3802  0.1543
    2ALA      O   16   6.848   1.257   5.462 -0.1605 -0.1876  0.0992
    3NME      N   17   6.808   1.090   5.325  0.1077  0.3469  0.8344
    3NME      H   18   6.836   1.047   5.238  0.7746 -0.3362  1.3771
    3NME    CH3   19   6.687   1.045   5.390 -0.6973 -0.3746  0.2417
    3NME   HH31   20   6.702   1.026   5.496 -1.2794 -1.5898  0.1218
    3NME   HH32   21   6.615   1.125   5.379  2.1933  2.3905 -0.1995
    3NME   HH33   22   6.650   0.949   5.353  0.0071 -1.2939  1.8254
  10.72160  10.72160  10.72160
