Protein
   42
    1ACE   HH31    1   6.349  12.908  15.009  0.4009 -0.1251 -0.2609
    1ACE    CH3    2   6.406  12.991  15.052 -0.1614 -0.0919  0.4553
    1ACE   HH32    3   6.503  12.985  15.002 -0.9683  0.4748 -1.2629
    1ACE   HH33    4   6.422  12.982  15.160  1.5122  1.6124  0.4126
    1ACE      C    5   6.340  13.124  15.023 -0.7406 -0.0343  0.8247
    1ACE      O    6   6.238  13.132  14.954  0.5193 -0.3622 -0.1384
    2ALA      N    7   6.401  13.233  15.068 -0.5802  0.2161 -0.2357
    2ALA      H    8   6.484  13.219  15.125 -1.4071 -2.1053  0.5194
    2ALA     CA    9   6.357  13.367  15.039  0.5383 -0.0349  0.8455
    2ALA     HA   10   6.326  13.372  14.935  0.1170 -2.6575  0.7857
    2ALA     CB   11   6.255  13.412  15.142  0.7061 -0.9487 -0.0728
    2ALA    HB1   12   6.219  13.510  15.111 -0.1558 -1.6287 -1.2374
    2ALA    HB2   13   6.174  13.341  15.130  1.6963 -2.0664 -0.2912
    2ALA    HB3   14   6.298  13.406  15.242 -1.2372 -1.4239  0.7695
    2ALA      C   15   6.482  13.459  15.045  0.0373 -0.5725 -0.8821
    2ALA      O   16   6.586  13.425  15.102 -0.1936  0.3405  0.4718
    3ALA      N   17   6.493  13.580  14.987  0.5564  0.2732  0.2126
    3ALA      H   18   6.584  13.619  15.005  1.8604 -2.6299  0.3086
    3ALA     CA   19   6.407  13.641  14.888  0.1484  0.4592 -0.4245
    3ALA     HA   20   6.329  13.569  14.863  0.2252  0.7338 -1.4934
    3ALA     CB   21   6.341  13.759  14.954 -0.0145  1.2868 -0.6222
    3ALA    HB1   22   6.288  13.810  14.874  0.0133  0.3505 -1.2501
    3ALA    HB2   23   6.266  13.731  15.029 -0.8212  0.1188 -1.8148
    3ALA    HB3   24   6.413  13.826  15.000  0.9607 -0.5543  0.7192
    3ALA      C   25   6.486  13.684  14.762  0.2571 -0.4852  0.2708
    3ALA      O   26   6.428  13.757  14.676  0.3417 -0.0695 -0.2226
    4ALA      N   27   6.616  13.654  14.749  0.0240  0.2383 -0.5514
    4ALA      H   28   6.653  13.591  14.818  1.3095 -0.0823 -1.5130
    4ALA     CA   29   6.716  13.711  14.663 -0.1370 -0.2981 -0.0148
    4ALA     HA   30   6.806  13.652  14.676 -0.5465 -1.3001 -1.4742
    4ALA     CB   31   6.670  13.689  14.524 -0.3828  0.2408  0.8207
    4ALA    HB1   32   6.660  13.582  14.507  2.3469 -0.0513  0.5927
    4ALA    HB2   33   6.583  13.746  14.491  0.3417 -0.3914 -2.5639
    4ALA    HB3   34   6.750  13.729  14.461 -0.9729  1.2264  0.6752
    4ALA      C   35   6.756  13.858  14.698 -0.5693 -0.6147 -0.2130
    4ALA      O   36   6.869  13.897  14.722  0.8023 -0.2584 -0.1090
    5NME      N   37   6.650  13.943  14.698  0.6511  0.2857 -0.0012
    5NME      H   38   6.558  13.906  14.678  0.9114 -0.6690  0.5375
    5NME    CH3   39   6.670  14.082  14.717  0.4152 -0.9446 -0.4479
    5NME   HH31   40   6.763  14.111  14.668  1.5106  0.5390  2.3030
    5NME   HH32   41   6.590  14.142  14.674  0.5037 -1.2677 -1.0776
    5NME   HH33   42   6.686  14.113  14.820 -0.4976  1.7726 -1.0290
  20.91516  20.91516  20.91516
