Protein
   42
    1ACE   HH31    1  15.798  12.170  18.455 -0.4641 -1.0495 -2.7235
    1ACE    CH3    2  15.903  12.166  18.426  0.3946  0.2599 -0.1081
    1ACE   HH32    3  15.911  12.087  18.352 -1.5055 -0.7258  0.6762
    1ACE   HH33    4  15.959  12.155  18.519 -0.9998 -1.2606  0.5917
    1ACE      C    5  15.944  12.294  18.356  0.0954  0.4258  0.4048
    1ACE      O    6  15.892  12.397  18.387 -0.4716 -0.7042  0.5427
    2ALA      N    7  16.052  12.279  18.273  0.6208  0.2033  0.2595
    2ALA      H    8  16.086  12.184  18.267 -0.7310 -0.2530 -0.4355
    2ALA     CA    9  16.092  12.375  18.171 -0.6031  0.2346 -0.2011
    2ALA     HA   10  16.002  12.414  18.123 -0.7121  0.7744  0.4402
    2ALA     CB   11  16.176  12.489  18.226 -0.3008  0.8565 -0.2812
    2ALA    HB1   12  16.270  12.453  18.266 -0.9290  0.7867  1.1791
    2ALA    HB2   13  16.192  12.566  18.151 -2.6751 -1.6331 -3.6517
    2ALA    HB3   14  16.126  12.545  18.306  0.3647 -0.4684  1.1175
    2ALA      C   15  16.175  12.296  18.066 -0.5993  0.0007 -0.1973
    2ALA      O   16  16.249  12.206  18.107  0.0583  0.4727  0.7889
    3ALA      N   17  16.165  12.336  17.945  0.7972 -0.2133  0.0382
    3ALA      H   18  16.116  12.422  17.921  0.5221 -0.4340 -0.2025
    3ALA     CA   19  16.220  12.265  17.821  0.0210  0.2961  0.4173
    3ALA     HA   20  16.329  12.258  17.823 -0.0841 -1.2467  2.0560
    3ALA     CB   21  16.166  12.124  17.813 -0.2778  0.5345  0.7354
    3ALA    HB1   22  16.209  12.076  17.725 -0.2115 -1.0740  1.6074
    3ALA    HB2   23  16.188  12.060  17.899 -1.9020 -0.4099  0.4938
    3ALA    HB3   24  16.058  12.122  17.805 -0.2189 -3.2185 -1.1872
    3ALA      C   25  16.182  12.352  17.696  0.4172  0.9606 -0.1034
    3ALA      O   26  16.108  12.449  17.715  0.0316 -0.4738 -0.0812
    4ALA      N   27  16.249  12.337  17.583  0.4460  0.7233  0.6410
    4ALA      H   28  16.312  12.259  17.571 -1.7200 -1.2420  1.2909
    4ALA     CA   29  16.224  12.420  17.468 -0.2210  0.1998 -0.0985
    4ALA     HA   30  16.121  12.456  17.469 -1.5255 -3.1158  0.1941
    4ALA     CB   31  16.332  12.531  17.461 -0.2973 -0.1576 -0.0519
    4ALA    HB1   32  16.311  12.621  17.519  0.4752 -0.3568  0.5555
    4ALA    HB2   33  16.431  12.492  17.483 -0.5580 -0.5099  0.5420
    4ALA    HB3   34  16.335  12.576  17.361  2.2687  1.3581  0.5936
    4ALA      C   35  16.235  12.335  17.341  0.2775 -0.4256 -0.8051
    4ALA      O   36  16.302  12.233  17.349  0.2113 -0.0099 -0.5958
    5NME      N   37  16.186  12.374  17.225  0.3016  0.8839  0.2818
    5NME      H   38  16.135  12.461  17.225  0.8313  1.2460  2.2662
    5NME    CH3   39  16.186  12.290  17.103 -0.7202 -0.0912 -0.0237
    5NME   HH31   40  16.104  12.218  17.107  0.4237 -1.3995  1.6200
    5NME   HH32   41  16.189  12.353  17.015 -0.0680 -0.1424 -0.0500
    5NME   HH33   42  16.282  12.240  17.095  0.3893  1.9818 -0.3559
  20.91516  20.91516  20.91516
