Protein
   22
    1ACE   HH31    1   5.185   8.296   1.611 -0.7356 -0.6823 -0.2273
    1ACE    CH3    2   5.275   8.238   1.590 -0.3559 -0.4003  0.5981
    1ACE   HH32    3   5.364   8.280   1.637 -0.2363  1.2156 -0.9833
    1ACE   HH33    4   5.290   8.243   1.482 -0.2971  1.1651  0.6540
    1ACE      C    5   5.247   8.091   1.622  0.0141  0.6637 -0.0753
    1ACE      O    6   5.195   8.024   1.536  0.3489  0.1849 -0.3551
    2ALA      N    7   5.295   8.047   1.733 -0.0140 -0.1625 -0.3441
    2ALA      H    8   5.352   8.112   1.784 -0.5875 -1.8095  2.6275
    2ALA     CA    9   5.260   7.924   1.799 -0.7385  0.2604 -0.0061
    2ALA     HA   10   5.263   7.948   1.905 -2.6828 -2.1224  0.6904
    2ALA     CB   11   5.111   7.882   1.777 -0.4999  0.1855  0.3612
    2ALA    HB1   12   5.115   7.825   1.684 -0.6893  2.1308 -0.9102
    2ALA    HB2   13   5.071   7.836   1.868 -0.6898  1.1858  0.7942
    2ALA    HB3   14   5.052   7.970   1.754 -0.2986 -0.0229 -0.9885
    2ALA      C   15   5.369   7.808   1.781  0.2678 -0.0670 -0.3417
    2ALA      O   16   5.410   7.756   1.883  0.0644  0.1406 -0.0135
    3NME      N   17   5.413   7.770   1.658 -0.3721 -0.5613 -0.1076
    3NME      H   18   5.366   7.816   1.581  0.5231  1.9204  0.7157
    3NME    CH3   19   5.488   7.649   1.623 -0.4258 -0.0553 -0.1076
    3NME   HH31   20   5.421   7.565   1.603 -0.2395 -0.2168 -0.0507
    3NME   HH32   21   5.558   7.661   1.540 -0.7284 -2.0431 -0.7207
    3NME   HH33   22   5.535   7.620   1.717  0.3517 -0.6346 -0.6681
  10.72160  10.72160  10.72160
