Protein
   32
    1ACE   HH31    1  12.853  15.028   5.363 -1.2181  0.8189  2.5246
    1ACE    CH3    2  12.797  14.934   5.357  0.0675  0.1310 -0.2968
    1ACE   HH32    3  12.762  14.905   5.456 -1.4643  1.4717 -0.3963
    1ACE   HH33    4  12.861  14.858   5.313  0.7602 -0.9578  2.3835
    1ACE      C    5  12.668  14.951   5.279  0.5369  0.1652 -0.3121
    1ACE      O    6  12.654  15.046   5.206 -0.4850 -0.4927  0.2621
    2ALA      N    7  12.579  14.854   5.297  0.0246  0.5294 -0.6056
    2ALA      H    8  12.592  14.774   5.359  3.4641 -0.6786 -2.5905
    2ALA     CA    9  12.455  14.852   5.221  0.4958 -0.1203 -0.3241
    2ALA     HA   10  12.409  14.756   5.246 -0.0439 -1.0174 -4.1823
    2ALA     CB   11  12.370  14.962   5.281  0.5489  0.7542  0.0332
    2ALA    HB1   12  12.271  14.963   5.235  1.2349  0.3906 -1.5389
    2ALA    HB2   13  12.357  14.937   5.386 -1.0201  0.3192 -0.2279
    2ALA    HB3   14  12.415  15.059   5.256  0.1103  0.8399 -0.4784
    2ALA      C   15  12.465  14.860   5.064 -0.3982  0.4450 -0.1881
    2ALA      O   16  12.375  14.898   4.998  0.1528 -0.0804 -0.6207
    3ALA      N   17  12.583  14.832   5.006 -0.4203 -0.4280  0.1918
    3ALA      H   18  12.656  14.800   5.067 -0.5302  2.7948  2.2108
    3ALA     CA   19  12.609  14.844   4.861  1.1045  0.4970 -0.9919
    3ALA     HA   20  12.575  14.941   4.823 -3.0144 -0.1122  0.5144
    3ALA     CB   21  12.762  14.826   4.840 -0.0821 -0.2891 -0.5437
    3ALA    HB1   22  12.792  14.732   4.886 -0.5797 -0.0629  0.2797
    3ALA    HB2   23  12.787  14.832   4.734  2.2405  2.3108  0.0230
    3ALA    HB3   24  12.820  14.910   4.878  0.2053 -0.7128 -0.0139
    3ALA      C   25  12.531  14.733   4.785 -0.2854  0.4824  0.0107
    3ALA      O   26  12.582  14.619   4.775 -0.4522 -0.1276 -0.0055
    4NME      N   27  12.413  14.767   4.739 -0.5324 -0.2363  0.4057
    4NME      H   28  12.376  14.855   4.772 -0.0502  0.0814  0.1131
    4NME    CH3   29  12.327  14.687   4.650 -0.1869 -0.4262 -0.1415
    4NME   HH31   30  12.360  14.584   4.659 -0.6915 -0.6730 -0.9800
    4NME   HH32   31  12.220  14.689   4.672  0.0945  1.1659  1.1951
    4NME   HH33   32  12.346  14.723   4.549 -0.3305 -0.6259 -0.2421
  20.99041  20.99041  20.99041
