Protein
   42
    1ACE   HH31    1  14.863  10.281   7.751 -1.4736  0.0660 -2.4530
    1ACE    CH3    2  14.956  10.290   7.695  0.3137 -0.1488  0.2660
    1ACE   HH32    3  14.946  10.344   7.600 -0.5531  0.5895  0.7575
    1ACE   HH33    4  15.016  10.201   7.676  2.1982  0.5585  2.4070
    1ACE      C    5  15.036  10.378   7.789 -0.1417 -0.0409  0.7328
    1ACE      O    6  15.102  10.475   7.745 -0.5158  0.2139 -0.3593
    2ALA      N    7  15.028  10.349   7.916 -0.0137  0.6157 -0.0137
    2ALA      H    8  14.979  10.264   7.943 -1.9462  2.0569  1.2902
    2ALA     CA    9  15.089  10.422   8.028  0.3180  0.3856  0.5341
    2ALA     HA   10  15.008  10.483   8.068 -0.7831 -0.9848  0.4543
    2ALA     CB   11  15.116  10.327   8.136 -0.0244 -0.2987 -0.0897
    2ALA    HB1   12  15.023  10.284   8.174  0.9945 -2.1029  0.5031
    2ALA    HB2   13  15.191  10.255   8.104  2.9634  2.1981  0.9176
    2ALA    HB3   14  15.164  10.386   8.214 -1.4597 -0.2071  0.7859
    2ALA      C   15  15.214  10.506   7.985  0.0228 -0.3379  0.3713
    2ALA      O   16  15.325  10.455   7.970  0.8330 -0.0621 -0.4573
    3ALA      N   17  15.214  10.640   7.978 -0.3683 -0.0163 -0.7906
    3ALA      H   18  15.296  10.679   7.934 -0.2556  1.6787  0.7928
    3ALA     CA   19  15.128  10.734   8.042  0.8493 -0.0617 -0.2453
    3ALA     HA   20  15.112  10.685   8.138 -0.2973 -0.0899 -0.4377
    3ALA     CB   21  15.199  10.870   8.041 -0.0456  0.1409  0.5362
    3ALA    HB1   22  15.306  10.857   8.059  0.5936 -1.5521 -3.4720
    3ALA    HB2   23  15.178  10.912   7.943 -0.8453  0.7201  0.9420
    3ALA    HB3   24  15.148  10.938   8.109 -2.2074 -1.8474  1.0151
    3ALA      C   25  14.983  10.746   7.981 -0.1227 -0.1508  0.0630
    3ALA      O   26  14.895  10.762   8.062 -0.2298 -0.2569  0.6090
    4ALA      N   27  14.967  10.716   7.851  0.0148  0.0584  1.1026
    4ALA      H   28  15.051  10.686   7.803  0.0338 -1.9852  2.3031
    4ALA     CA   29  14.840  10.713   7.785  0.1748  0.5684  0.8795
    4ALA     HA   30  14.795  10.811   7.796 -2.1868 -0.5301  1.7090
    4ALA     CB   31  14.856  10.708   7.628 -0.2491  0.1048 -0.1388
    4ALA    HB1   32  14.759  10.736   7.587  0.3523  1.1430 -0.9166
    4ALA    HB2   33  14.924  10.788   7.600  0.3064 -0.1161  0.5553
    4ALA    HB3   34  14.893  10.611   7.596  1.4904  0.7056 -0.0876
    4ALA      C   35  14.740  10.611   7.845 -0.3827 -0.1705 -0.2141
    4ALA      O   36  14.770  10.497   7.886 -0.4274  0.2808 -0.7231
    5NME      N   37  14.611  10.651   7.843 -0.2011  0.2779 -0.1733
    5NME      H   38  14.595  10.733   7.786 -1.6145 -0.5784 -1.0398
    5NME    CH3   39  14.495  10.573   7.892 -0.1902  0.2027 -0.4040
    5NME   HH31   40  14.402  10.596   7.839 -0.2692  0.1851 -0.2744
    5NME   HH32   41  14.521  10.468   7.885  1.1603  0.5985 -2.3451
    5NME   HH33   42  14.483  10.605   7.995  2.4936 -2.4136  0.8495
  20.91516  20.91516  20.91516
