Title
  129
    1AIB    CAY    1  20.754  20.825  21.692 -0.6119  0.3103  0.3285
    1AIB    HY1    2  20.828  20.766  21.633 -0.1209  1.3074 -0.0821
    1AIB    HY2    3  20.715  20.908  21.629 -1.6585 -0.3914  0.0202
    1AIB    HY3    4  20.669  20.760  21.721  0.0056 -1.0118 -0.7338
    1AIB     CY    5  20.825  20.889  21.811 -0.1130 -0.1610 -0.0428
    1AIB     OY    6  20.938  20.930  21.789  0.3848  0.1037 -0.6994
    1AIB      N    7  20.768  20.893  21.931 -0.6326  0.9579 -0.4101
    1AIB     HN    8  20.685  20.842  21.951  1.0955 -1.7477  0.5226
    1AIB     CA    9  20.812  20.960  22.052 -0.3205  0.4347 -0.1205
    1AIB    CB1   10  20.743  20.892  22.169 -0.6097 -0.1445 -0.3515
    1AIB   HB11   11  20.759  20.782  22.173  1.3158  0.1101  0.2381
    1AIB   HB12   12  20.634  20.905  22.156 -0.6551  0.9699  0.9441
    1AIB   HB13   13  20.764  20.947  22.263 -0.7022  0.1945 -0.5298
    1AIB    CB2   14  20.775  21.118  22.040  0.3979 -0.1774 -0.6101
    1AIB   HB21   15  20.665  21.127  22.059  0.4356 -0.4722 -0.2303
    1AIB   HB22   16  20.801  21.174  21.947 -0.9438 -0.4083 -1.1606
    1AIB   HB23   17  20.817  21.170  22.128 -1.4240 -0.5876  0.5777
    1AIB      C   18  20.967  20.953  22.080  0.1655 -0.1020  0.2239
    1AIB      O   19  21.025  21.059  22.093  0.2710 -0.3812 -0.2278
    2AIB      N   20  21.021  20.831  22.075 -0.3136 -0.0855  0.5216
    2AIB     HN   21  20.977  20.743  22.057 -0.0024 -0.6567  2.3593
    2AIB     CA   22  21.157  20.805  22.110  0.2934  0.6020  0.3634
    2AIB    CB1   23  21.182  20.654  22.107  0.0531  0.2925 -0.1029
    2AIB   HB11   24  21.115  20.592  22.170 -0.4297  1.0586  0.1530
    2AIB   HB12   25  21.288  20.640  22.137 -0.2140  1.4716  1.5797
    2AIB   HB13   26  21.168  20.608  22.007  2.6722 -0.3411 -0.2672
    2AIB    CB2   27  21.193  20.848  22.253 -0.0972 -0.0385  0.9088
    2AIB   HB21   28  21.186  20.958  22.268  1.1281  0.2641 -0.6188
    2AIB   HB22   29  21.290  20.806  22.287 -0.5392 -0.7305  1.3399
    2AIB   HB23   30  21.125  20.792  22.322  0.1218 -0.7936  0.5298
    2AIB      C   31  21.255  20.885  22.011 -1.0180 -0.2978 -0.3248
    2AIB      O   32  21.343  20.961  22.059  0.2789  0.3398  0.7125
    3AIB      N   33  21.243  20.868  21.875 -0.7349 -0.1704 -0.1400
    3AIB     HN   34  21.170  20.809  21.841 -1.6206  0.3414  0.7485
    3AIB     CA   35  21.321  20.934  21.773  0.7383  0.5113  0.0551
    3AIB    CB1   36  21.255  20.896  21.636  0.2496  0.4400 -0.1135
    3AIB   HB11   37  21.270  20.787  21.616 -0.7168  0.1284  0.7717
    3AIB   HB12   38  21.299  20.952  21.550  1.3610 -0.1571  0.0519
    3AIB   HB13   39  21.144  20.898  21.634  0.1881 -0.7864  0.8452
    3AIB    CB2   40  21.469  20.881  21.761 -0.2468  0.3248 -0.0189
    3AIB   HB21   41  21.458  20.779  21.720 -0.2333  0.9078 -1.5261
    3AIB   HB22   42  21.510  20.882  21.865  1.9324 -0.7807 -0.8182
    3AIB   HB23   43  21.530  20.946  21.695 -0.6371  2.2695  1.4284
    3AIB      C   44  21.323  21.087  21.792  0.5802  0.1308 -0.0507
    3AIB      O   45  21.429  21.145  21.797  0.1378  0.1263 -0.1066
    4AIB      N   46  21.210  21.163  21.798  0.2086  0.4801 -0.1773
    4AIB     HN   47  21.129  21.109  21.779  1.5134 -0.8920 -2.2698
    4AIB     CA   48  21.179  21.303  21.810 -0.1146 -0.3797  0.2528
    4AIB    CB1   49  21.027  21.313  21.814 -0.5552  0.0180  0.6035
    4AIB   HB11   50  21.000  21.420  21.822  0.6271  0.2408  2.0986
    4AIB   HB12   51  20.994  21.262  21.907  0.9099 -2.0461  0.0638
    4AIB   HB13   52  20.979  21.268  21.724 -0.2426  0.4456  0.2131
    4AIB    CB2   53  21.219  21.362  21.672  0.9728  0.7631  0.2328
    4AIB   HB21   54  21.329  21.355  21.657  0.7567 -0.1034 -1.1208
    4AIB   HB22   55  21.197  21.471  21.667  0.9683  0.7621  0.1660
    4AIB   HB23   56  21.172  21.323  21.579 -0.2798  3.7896 -0.5285
    4AIB      C   57  21.248  21.375  21.931 -0.4412  0.1673 -0.3890
    4AIB      O   58  21.325  21.471  21.910 -0.3508 -0.0341  0.4557
    5AIB      N   59  21.230  21.317  22.050  0.2202  0.0379  0.6518
    5AIB     HN   60  21.194  21.224  22.058  1.7875 -0.6051  0.5129
    5AIB     CA   61  21.305  21.352  22.160 -1.0091 -0.1614 -0.0113
    5AIB    CB1   62  21.287  21.248  22.277 -0.6866  0.6140  0.1379
    5AIB   HB11   63  21.310  21.145  22.243 -2.2444  0.2236  0.2040
    5AIB   HB12   64  21.179  21.245  22.306 -0.6631  0.0105  0.2018
    5AIB   HB13   65  21.349  21.271  22.367  1.5602  1.4563 -1.5580
    5AIB    CB2   66  21.245  21.486  22.213 -0.1978 -0.2099  0.1679
    5AIB   HB21   67  21.228  21.559  22.132 -1.0774  1.6351  1.9193
    5AIB   HB22   68  21.313  21.526  22.291 -0.7490 -0.1160  0.5987
    5AIB   HB23   69  21.144  21.468  22.256 -0.6715 -0.4107 -0.9888
    5AIB      C   70  21.459  21.350  22.148  0.4346 -0.3836 -0.0110
    5AIB      O   71  21.524  21.449  22.192 -0.3258  0.4357 -0.8938
    6AIB      N   72  21.519  21.250  22.087 -0.4860 -0.3927 -0.1389
    6AIB     HN   73  21.473  21.174  22.041 -2.3757  0.2262  0.6295
    6AIB     CA   74  21.660  21.242  22.060 -0.4893  0.0153 -0.3075
    6AIB    CB1   75  21.675  21.111  21.976 -0.2401 -0.3125 -0.1765
    6AIB   HB11   76  21.607  21.028  22.007  0.5418 -0.6144  0.8286
    6AIB   HB12   77  21.775  21.067  21.994  0.1330  1.2389  2.0139
    6AIB   HB13   78  21.669  21.126  21.867 -0.9006  0.7542  0.0032
    6AIB    CB2   79  21.737  21.232  22.199  0.2069  0.1753 -0.0174
    6AIB   HB21   80  21.679  21.159  22.259 -0.7813  0.2395 -0.8627
    6AIB   HB22   81  21.725  21.324  22.260 -0.0233 -0.1709  0.4615
    6AIB   HB23   82  21.845  21.206  22.190 -0.0914 -1.4848  0.7507
    6AIB      C   83  21.708  21.358  21.977 -0.2989  0.5916  0.7550
    6AIB      O   84  21.819  21.405  22.002  0.1963 -0.2086 -0.2296
    7AIB      N   85  21.637  21.400  21.874  0.0832  0.5134  0.5366
    7AIB     HN   86  21.548  21.361  21.853  0.8051 -2.2676  2.1583
    7AIB     CA   87  21.687  21.503  21.786  0.0734 -0.4326  0.1743
    7AIB    CB1   88  21.590  21.493  21.671  0.0762 -0.3944  0.3107
    7AIB   HB11   89  21.601  21.579  21.602 -1.9477 -0.8718 -0.6836
    7AIB   HB12   90  21.487  21.486  21.712  1.0443 -3.2474  2.5943
    7AIB   HB13   91  21.612  21.395  21.624  0.0443  0.7005 -2.1199
    7AIB    CB2   92  21.831  21.491  21.732 -0.2793  0.4556 -0.7439
    7AIB   HB21   93  21.853  21.385  21.709  0.7020  0.9114 -2.1213
    7AIB   HB22   94  21.899  21.525  21.814 -2.9621  1.2545  1.2789
    7AIB   HB23   95  21.834  21.557  21.642 -0.0677  1.1345 -0.2498
    7AIB      C   96  21.673  21.639  21.850 -0.6764  0.2628  0.0880
    7AIB      O   97  21.752  21.723  21.801  0.6131 -0.4190  0.3682
    8AIB      N   98  21.579  21.669  21.943  0.2348 -0.0584 -0.1091
    8AIB     HN   99  21.520  21.593  21.969  0.1726 -0.1306 -0.4738
    8AIB     CA  100  21.557  21.795  22.015 -0.5629  0.2806 -0.0148
    8AIB    CB1  101  21.439  21.764  22.114 -0.2461  0.0744  0.1762
    8AIB   HB11  102  21.355  21.723  22.055  1.1072 -0.7843 -1.2187
    8AIB   HB12  103  21.393  21.855  22.157 -0.4541  0.6021 -1.1219
    8AIB   HB13  104  21.477  21.700  22.197  0.2710  0.0340 -0.0919
    8AIB    CB2  105  21.529  21.914  21.917  0.2422  0.8315 -0.2461
    8AIB   HB21  106  21.433  21.891  21.867 -0.9987  0.2578  2.2318
    8AIB   HB22  107  21.607  21.909  21.838 -0.8962 -2.1147 -1.3059
    8AIB   HB23  108  21.520  22.011  21.971 -0.8161  1.2251 -1.0754
    8AIB      C  109  21.685  21.828  22.097 -0.2502  0.1189 -0.3243
    8AIB      O  110  21.727  21.940  22.112 -0.2104 -0.4708 -0.9723
    9AIB      N  111  21.741  21.722  22.157 -0.5655  0.7448 -0.2437
    9AIB     HN  112  21.703  21.633  22.137  1.2756 -0.8493  2.6819
    9AIB     CA  113  21.854  21.712  22.248 -0.0680 -0.1622 -0.1118
    9AIB    CB1  114  21.876  21.568  22.309  0.5300  0.4415 -0.5605
    9AIB   HB11  115  21.961  21.562  22.380 -1.1155 -0.2351  1.4225
    9AIB   HB12  116  21.886  21.493  22.227  0.8367 -0.3415  0.1678
    9AIB   HB13  117  21.780  21.546  22.360  0.2737  1.0258 -0.7923
    9AIB    CB2  118  21.834  21.811  22.365  0.2033  0.1370 -0.3479
    9AIB   HB21  119  21.862  21.911  22.324 -4.0609  0.6763 -2.4986
    9AIB   HB22  120  21.910  21.790  22.444 -0.2810 -0.4792 -0.0294
    9AIB   HB23  121  21.728  21.807  22.399  0.1520  1.4124 -0.2972
    9AIB      C  122  21.985  21.743  22.174 -0.0742  0.7117 -0.4239
    9AIB      O  123  22.084  21.800  22.226  0.5116  0.2836 -0.0697
    9AIB     NT  124  21.978  21.703  22.047  0.0290  1.2315 -0.1122
    9AIB    HNT  125  21.896  21.659  22.011  0.1214  1.2028 -0.3000
    9AIB    CAT  126  22.090  21.722  21.953  0.3924 -0.0311  0.3122
    9AIB    HT1  127  22.057  21.789  21.871  0.0776  1.6659  1.7598
    9AIB    HT2  128  22.113  21.621  21.912 -1.1433 -0.7637  1.1550
    9AIB    HT3  129  22.183  21.767  21.995  0.3203 -0.4170  0.9050
  42.09246  42.09246  42.09246
