Protein
   32
    1ACE   HH31    1  12.568   5.465  15.115 -0.7902  2.4749  1.3910
    1ACE    CH3    2  12.594   5.523  15.026 -0.0190  0.6592  0.3990
    1ACE   HH32    3  12.636   5.615  15.066  0.6849 -0.4354  2.3486
    1ACE   HH33    4  12.501   5.550  14.975 -0.0060  0.1830  0.1207
    1ACE      C    5  12.681   5.450  14.929  0.0603  0.1112 -0.6883
    1ACE      O    6  12.652   5.457  14.808  0.1818  0.6704 -0.1830
    2ALA      N    7  12.792   5.398  14.974 -0.7374 -0.1573  0.8031
    2ALA      H    8  12.809   5.395  15.073  0.1440 -1.5535  0.6428
    2ALA     CA    9  12.889   5.324  14.889 -0.1789 -0.3386  0.1164
    2ALA     HA   10  12.848   5.323  14.788  1.7057  2.2621 -0.7944
    2ALA     CB   11  13.024   5.397  14.877 -0.2474 -0.0542 -0.1262
    2ALA    HB1   12  13.081   5.364  14.964 -0.3001  0.0693 -0.0441
    2ALA    HB2   13  13.080   5.374  14.786  1.7239  1.0536  0.7312
    2ALA    HB3   14  13.014   5.506  14.878  0.0843  0.0455 -2.2695
    2ALA      C   15  12.898   5.178  14.925 -0.2475  0.4972  0.0101
    2ALA      O   16  12.807   5.126  14.987 -0.6465  0.4011 -0.2559
    3ALA      N   17  12.998   5.105  14.864  0.2732 -0.4155 -0.4583
    3ALA      H   18  13.059   5.153  14.799 -0.0679 -1.5350 -1.6516
    3ALA     CA   19  13.053   4.980  14.902  0.1169 -0.3152 -0.6554
    3ALA     HA   20  12.975   4.906  14.887  0.1562 -1.3137  3.0014
    3ALA     CB   21  13.178   4.955  14.805  0.2159  0.2365  0.7611
    3ALA    HB1   22  13.237   5.047  14.806  0.3230  0.1921 -0.4747
    3ALA    HB2   23  13.240   4.869  14.832 -3.3420 -2.6670  0.4216
    3ALA    HB3   24  13.151   4.938  14.701 -0.6086  0.8394  0.8738
    3ALA      C   25  13.093   4.965  15.057 -0.1787 -0.2151 -0.0045
    3ALA      O   26  13.005   4.941  15.140 -0.4723  0.4999  0.5570
    4NME      N   27  13.220   4.985  15.106 -0.0582 -0.7250 -0.1646
    4NME      H   28  13.286   5.027  15.042  2.4654 -2.8883  0.8773
    4NME    CH3   29  13.262   4.947  15.241  0.1211 -0.0240  0.4774
    4NME   HH31   30  13.187   4.895  15.300 -0.7003  1.5548  0.8683
    4NME   HH32   31  13.348   4.880  15.231 -1.0511 -1.2401 -2.4293
    4NME   HH33   32  13.294   5.039  15.291  0.5125  0.2572 -0.2825
  20.99041  20.99041  20.99041
