Protein
   42
    1ACE   HH31    1   9.224  13.455   7.380  0.8420  0.1893 -0.0578
    1ACE    CH3    2   9.227  13.354   7.339  0.4140  0.0556  0.2383
    1ACE   HH32    3   9.325  13.344   7.293  1.0531  0.0403  1.5216
    1ACE   HH33    4   9.156  13.345   7.257  1.5481  1.9557 -1.0291
    1ACE      C    5   9.216  13.246   7.451  0.9364  0.2951  0.6321
    1ACE      O    6   9.253  13.267   7.565 -0.1821 -0.0259  0.1407
    2ALA      N    7   9.163  13.128   7.404 -0.2613  0.1352  0.0692
    2ALA      H    8   9.138  13.130   7.306  2.2024  0.7407 -0.6058
    2ALA     CA    9   9.118  13.018   7.489  0.4622  0.1055  0.2368
    2ALA     HA   10   9.056  12.956   7.424 -1.0720  1.0385  0.7712
    2ALA     CB   11   9.241  12.948   7.543 -0.7164 -0.0002  0.7975
    2ALA    HB1   12   9.308  13.002   7.611 -0.3538 -3.0747  3.1381
    2ALA    HB2   13   9.214  12.862   7.604  1.5862 -1.4462 -0.1041
    2ALA    HB3   14   9.298  12.920   7.455 -0.5619  1.0136  0.5555
    2ALA      C   15   9.022  13.051   7.599 -0.3732 -0.2727  0.1168
    2ALA      O   16   8.931  12.972   7.616 -0.3418 -0.1010 -0.7692
    3ALA      N   17   9.038  13.154   7.678 -0.4897  0.3468  0.1619
    3ALA      H   18   9.115  13.213   7.652  0.5374 -1.2126 -0.4483
    3ALA     CA   19   8.952  13.201   7.789 -0.0556 -0.2660  0.2951
    3ALA     HA   20   8.975  13.307   7.804 -0.8983  0.0756 -0.6376
    3ALA     CB   21   8.806  13.219   7.745 -0.9052  0.2445 -0.6678
    3ALA    HB1   22   8.810  13.253   7.642 -0.8252 -0.1207 -0.7853
    3ALA    HB2   23   8.758  13.121   7.752  0.9672 -0.6125  1.4065
    3ALA    HB3   24   8.767  13.289   7.819  0.0858  1.0766 -0.9157
    3ALA      C   25   8.982  13.132   7.925  0.2223  0.2252  0.6631
    3ALA      O   26   8.900  13.131   8.019 -0.0130 -0.3856  0.1685
    4ALA      N   27   9.089  13.053   7.927 -0.5890  0.2700  1.1640
    4ALA      H   28   9.132  13.044   7.836 -1.8841  1.1402  0.4352
    4ALA     CA   29   9.168  12.988   8.036  0.1461  0.6016 -0.1327
    4ALA     HA   30   9.141  12.883   8.044  1.3683  0.3657  1.3673
    4ALA     CB   31   9.313  13.006   7.997 -0.3775 -0.2623  0.6677
    4ALA    HB1   32   9.329  12.967   7.897  0.1545  0.1677  0.5822
    4ALA    HB2   33   9.341  13.111   8.002 -0.0595 -0.3816  1.4782
    4ALA    HB3   34   9.378  12.950   8.064  2.6607  0.3905 -1.5148
    4ALA      C   35   9.139  13.039   8.183  0.1077 -0.4300  0.7309
    4ALA      O   36   9.133  12.960   8.274  0.1173  0.1012  0.1020
    5NME      N   37   9.117  13.170   8.198  0.2741 -0.3506 -0.1310
    5NME      H   38   9.104  13.230   8.117 -1.4017 -0.5637 -0.0761
    5NME    CH3   39   9.083  13.224   8.333  0.5820 -0.2929  1.1194
    5NME   HH31   40   8.976  13.237   8.346  0.5118  0.2387  0.0566
    5NME   HH32   41   9.110  13.158   8.416 -0.7714  0.2122  2.0153
    5NME   HH33   42   9.133  13.321   8.342  1.6278 -0.7364  0.2897
  20.91516  20.91516  20.91516
