Protein
   32
    1ACE   HH31    1   7.119  10.452   6.302  0.5670  0.7527 -2.4696
    1ACE    CH3    2   7.061  10.538   6.336  0.5210 -0.3897  0.5788
    1ACE   HH32    3   7.053  10.622   6.267  0.2405 -2.4593 -2.0622
    1ACE   HH33    4   7.110  10.580   6.425 -0.2421  0.3163  0.6853
    1ACE      C    5   6.924  10.481   6.362 -0.2751 -0.2817 -0.4869
    1ACE      O    6   6.816  10.521   6.318 -0.1213 -0.0822  0.0709
    2ALA      N    7   6.923  10.379   6.441 -1.1115  0.1119 -0.0996
    2ALA      H    8   7.009  10.352   6.486  0.6688 -0.2292 -3.3469
    2ALA     CA    9   6.814  10.287   6.483  0.2469  0.2968  0.3708
    2ALA     HA   10   6.722  10.346   6.492  0.0925  0.0481  0.4404
    2ALA     CB   11   6.781  10.195   6.366 -0.2944 -0.5836  0.0231
    2ALA    HB1   12   6.698  10.124   6.376 -0.4300 -0.3794  0.3929
    2ALA    HB2   13   6.746  10.248   6.278  1.2927  0.9814  0.3036
    2ALA    HB3   14   6.870  10.144   6.332  0.5001  1.7899 -1.6902
    2ALA      C   15   6.847  10.205   6.609  1.1435  0.4225 -0.6361
    2ALA      O   16   6.966  10.181   6.636  0.1282 -0.0977  0.7421
    3ALA      N   17   6.744  10.136   6.669  0.7725 -0.5307 -0.6154
    3ALA      H   18   6.653  10.164   6.636 -0.0575 -0.3903  1.6676
    3ALA     CA   19   6.744  10.046   6.789 -0.3020 -0.2360 -0.8409
    3ALA     HA   20   6.639  10.020   6.805  0.1658 -1.6475  0.2045
    3ALA     CB   21   6.813   9.911   6.757  0.2413  0.5438  0.5545
    3ALA    HB1   22   6.763   9.872   6.669 -0.1897  4.3423 -1.0638
    3ALA    HB2   23   6.919   9.919   6.734  0.5390  1.0833  1.9767
    3ALA    HB3   24   6.800   9.840   6.839  3.0094 -1.2174 -0.4246
    3ALA      C   25   6.791  10.119   6.914 -0.1399  0.1431 -0.1276
    3ALA      O   26   6.706  10.187   6.984 -0.3664 -0.1154  0.0756
    4NME      N   27   6.921  10.102   6.937  0.4592  0.6902  0.0263
    4NME      H   28   6.974  10.050   6.868 -0.7031  0.6862 -0.8847
    4NME    CH3   29   6.990  10.159   7.049 -0.3083  0.7325  0.0196
    4NME   HH31   30   6.962  10.263   7.061 -1.4635  0.4168  0.0670
    4NME   HH32   31   6.966  10.096   7.134 -2.7500 -0.5749 -1.5041
    4NME   HH33   32   7.098  10.154   7.031 -0.4271 -0.7530 -0.4602
  20.99041  20.99041  20.99041
