Protein
   42
    1ACE   HH31    1   7.722   6.365   7.035  1.3272  2.7013 -0.1559
    1ACE    CH3    2   7.761   6.345   6.935  0.3349 -0.1580 -0.0279
    1ACE   HH32    3   7.812   6.440   6.920 -1.5387  0.8170 -0.7059
    1ACE   HH33    4   7.690   6.335   6.852 -1.0841  1.3853  0.9232
    1ACE      C    5   7.875   6.241   6.944  0.4293 -0.5487  0.4441
    1ACE      O    6   7.899   6.173   6.845 -0.6232  0.7143 -0.3018
    2ALA      N    7   7.939   6.225   7.060 -0.1037  0.1960 -0.7786
    2ALA      H    8   7.916   6.289   7.134  4.8986  1.2495  0.2529
    2ALA     CA    9   8.038   6.131   7.093 -0.5621 -0.0817  0.2007
    2ALA     HA   10   8.139   6.173   7.096  0.2823 -2.0416  0.9708
    2ALA     CB   11   8.020   6.097   7.238 -0.0818 -0.4440 -0.3429
    2ALA    HB1   12   8.108   6.041   7.269 -0.5483 -2.2781 -2.1438
    2ALA    HB2   13   8.000   6.186   7.299  0.1241 -0.6210 -0.0165
    2ALA    HB3   14   7.936   6.029   7.248 -1.2553  0.4034 -3.3563
    2ALA      C   15   8.048   6.001   7.008 -0.4287 -0.7444 -0.0972
    2ALA      O   16   7.953   5.928   7.006  0.0721 -0.1252  0.4716
    3ALA      N   17   8.165   5.954   6.962 -0.0191  0.3430  0.0617
    3ALA      H   18   8.153   5.863   6.920 -4.3829  1.3731 -1.3682
    3ALA     CA   19   8.299   6.020   6.979 -0.1425  0.0977 -0.1263
    3ALA     HA   20   8.316   6.053   7.082 -1.6712 -1.1126  0.5634
    3ALA     CB   21   8.396   5.905   6.958 -0.3807  0.6002  0.5577
    3ALA    HB1   22   8.499   5.941   6.963 -0.2054  0.2075 -0.0582
    3ALA    HB2   23   8.394   5.825   7.032  0.6895  1.0787  1.1264
    3ALA    HB3   24   8.385   5.853   6.863 -0.8907  1.5681  0.0723
    3ALA      C   25   8.327   6.133   6.876 -0.9946 -0.1363  0.1586
    3ALA      O   26   8.443   6.185   6.867  0.2299 -0.0134  0.2849
    4ALA      N   27   8.230   6.169   6.798  0.3712  0.3474  0.3458
    4ALA      H   28   8.135   6.136   6.810  0.8189 -0.3295  2.2988
    4ALA     CA   29   8.247   6.278   6.707 -0.9919 -0.5366 -0.3686
    4ALA     HA   30   8.348   6.274   6.666 -0.4687  2.4375  0.3724
    4ALA     CB   31   8.154   6.263   6.587 -0.4662 -0.4044  0.3764
    4ALA    HB1   32   8.048   6.276   6.609 -1.1769  1.3892 -3.3118
    4ALA    HB2   33   8.166   6.346   6.517  0.4135 -1.5378 -0.8898
    4ALA    HB3   34   8.168   6.165   6.542  0.5314 -0.9628  1.8420
    4ALA      C   35   8.226   6.419   6.775  0.4576 -0.8560 -0.5922
    4ALA      O   36   8.163   6.426   6.883 -0.5016 -0.2483 -0.3587
    5NME      N   37   8.278   6.523   6.710  0.2275 -0.3945 -0.4690
    5NME      H   38   8.320   6.509   6.619  0.2655  0.0571 -0.5262
    5NME    CH3   39   8.259   6.658   6.762 -0.3131  0.1628 -0.5409
    5NME   HH31   40   8.283   6.649   6.868 -0.8459  1.6649 -0.2745
    5NME   HH32   41   8.327   6.730   6.717  1.2560 -1.2944 -0.6349
    5NME   HH33   42   8.153   6.678   6.755 -0.4120 -0.3443 -0.5114
  20.91516  20.91516  20.91516
