Protein
   42
    1ACE   HH31    1   3.420   9.765   6.452 -0.8477  0.1223 -2.2135
    1ACE    CH3    2   3.324   9.737   6.495 -0.0190  0.3055 -0.0741
    1ACE   HH32    3   3.320   9.631   6.467 -1.8948  0.2039  0.4285
    1ACE   HH33    4   3.250   9.808   6.458 -0.2270  0.5608  0.8163
    1ACE      C    5   3.336   9.751   6.644  1.3404 -0.1190  0.0811
    1ACE      O    6   3.304   9.661   6.721  0.5168  1.0690 -0.4360
    2ALA      N    7   3.389   9.858   6.694  0.4809 -0.1269  0.3294
    2ALA      H    8   3.401   9.939   6.636  0.9790 -0.3796  0.0658
    2ALA     CA    9   3.415   9.884   6.831  0.5378  0.7361 -0.0388
    2ALA     HA   10   3.361   9.811   6.890 -0.3166 -1.3057 -3.0729
    2ALA     CB   11   3.571   9.872   6.848 -0.1711 -0.4118  0.3930
    2ALA    HB1   12   3.594   9.909   6.948 -2.0704 -0.0630  0.7325
    2ALA    HB2   13   3.587   9.765   6.832 -3.5633 -1.0423  0.3832
    2ALA    HB3   14   3.625   9.930   6.774  1.1616 -1.4945  0.4695
    2ALA      C   15   3.355  10.021   6.878  0.1142  0.3914  0.2021
    2ALA      O   16   3.324  10.107   6.799 -0.0729  0.3840 -0.3984
    3ALA      N   17   3.362  10.038   7.010  0.1221  0.2553  0.3400
    3ALA      H   18   3.390   9.957   7.063  0.8228 -0.4078 -1.0003
    3ALA     CA   19   3.312  10.162   7.077 -0.0188  0.4200  0.7864
    3ALA     HA   20   3.274  10.227   6.999 -0.8062 -1.3734 -0.3707
    3ALA     CB   21   3.204  10.131   7.181  0.6942 -0.3250  1.0084
    3ALA    HB1   22   3.120  10.077   7.138  0.2609  1.2768 -0.2530
    3ALA    HB2   23   3.240  10.064   7.260  0.1338  0.1419  1.6724
    3ALA    HB3   24   3.173  10.222   7.232  0.5429 -0.3723  0.9990
    3ALA      C   25   3.435  10.232   7.144 -0.0509  0.2477 -0.2819
    3ALA      O   26   3.515  10.167   7.218  0.5293 -0.1974  1.2922
    4ALA      N   27   3.440  10.369   7.126 -0.0674  0.3881  0.5071
    4ALA      H   28   3.367  10.415   7.073  0.9812  1.7091  0.1689
    4ALA     CA   29   3.544  10.456   7.172 -0.2611 -0.2494 -0.7318
    4ALA     HA   30   3.639  10.402   7.183  0.0403  0.1494 -1.3449
    4ALA     CB   31   3.553  10.572   7.072 -0.4353 -0.3808  0.5742
    4ALA    HB1   32   3.569  10.522   6.977  1.5015 -2.8987  2.0653
    4ALA    HB2   33   3.462  10.631   7.064 -1.8810 -2.6247 -0.4115
    4ALA    HB3   34   3.635  10.640   7.097 -0.3295 -0.0121 -0.6889
    4ALA      C   35   3.510  10.513   7.313 -0.2987  0.2297 -0.5381
    4ALA      O   36   3.391  10.530   7.346 -0.2968 -0.1888 -0.0399
    5NME      N   37   3.617  10.544   7.388  0.0917  0.1149  0.3325
    5NME      H   38   3.702  10.552   7.335 -0.5090 -0.1032 -0.7011
    5NME    CH3   39   3.632  10.587   7.526  0.1223  0.0614  0.0304
    5NME   HH31   40   3.537  10.607   7.576 -0.0921  1.7109 -0.9673
    5NME   HH32   41   3.694  10.515   7.580  1.8096  1.3335 -0.1636
    5NME   HH33   42   3.698  10.673   7.534 -0.0667  0.4468 -2.1053
  20.91516  20.91516  20.91516
