Protein
   32
    1ACE   HH31    1  12.404   6.980   9.684  0.4384  0.6269 -1.4009
    1ACE    CH3    2  12.499   7.017   9.723 -0.2401  0.7583  0.2278
    1ACE   HH32    3  12.585   6.982   9.666 -0.2225  0.0836  0.6765
    1ACE   HH33    4  12.502   7.000   9.830 -2.8224 -0.8199  0.1241
    1ACE      C    5  12.486   7.165   9.717 -0.2510 -0.6853 -0.4167
    1ACE      O    6  12.378   7.221   9.742  0.0623  0.3098  0.4060
    2ALA      N    7  12.599   7.234   9.695  0.0550 -0.2179 -0.2751
    2ALA      H    8  12.678   7.179   9.666 -0.2153  0.0916 -1.6883
    2ALA     CA    9  12.605   7.378   9.702 -0.0780  0.3314  0.3307
    2ALA     HA   10  12.581   7.419   9.800  0.1532  1.1278  0.0543
    2ALA     CB   11  12.746   7.434   9.685 -0.7336 -0.5492 -0.0316
    2ALA    HB1   12  12.751   7.542   9.676  2.4611 -0.4630  1.4353
    2ALA    HB2   13  12.796   7.411   9.780 -1.5646  0.2493  0.6070
    2ALA    HB3   14  12.811   7.385   9.612  2.4909  0.6278  1.7792
    2ALA      C   15  12.509   7.453   9.599 -1.2552  0.5700  0.4254
    2ALA      O   16  12.441   7.556   9.623 -0.2960  0.0127  0.1758
    3ALA      N   17  12.513   7.388   9.482  0.2927 -0.9164  0.1437
    3ALA      H   18  12.581   7.315   9.463  1.5243 -0.3059  1.9538
    3ALA     CA   19  12.440   7.442   9.367 -0.6815 -0.7716 -0.2281
    3ALA     HA   20  12.338   7.466   9.396  0.1149  2.4677  0.2925
    3ALA     CB   21  12.510   7.567   9.309  0.2789  0.2263 -0.0799
    3ALA    HB1   22  12.618   7.550   9.303 -0.1389 -2.8884 -0.1054
    3ALA    HB2   23  12.473   7.571   9.206  1.9251  0.7307 -0.6966
    3ALA    HB3   24  12.480   7.652   9.370 -1.3122 -1.2435  1.3008
    3ALA      C   25  12.436   7.333   9.254  0.1665  0.7598 -0.0923
    3ALA      O   26  12.543   7.282   9.214  0.6432  0.1973  0.0400
    4NME      N   27  12.314   7.297   9.212  0.2044 -0.2262 -0.7092
    4NME      H   28  12.234   7.338   9.257 -0.3618 -1.7932 -0.2216
    4NME    CH3   29  12.293   7.190   9.109 -0.5314  0.3036 -0.4723
    4NME   HH31   30  12.185   7.193   9.095 -1.0127  0.2474  2.4578
    4NME   HH32   31  12.343   7.212   9.016  0.3064 -0.4683 -0.2186
    4NME   HH33   32  12.316   7.096   9.161  2.1519  1.5944  0.8733
  20.99041  20.99041  20.99041
