Protein
   32
    1ACE   HH31    1  12.679  12.271   6.877 -1.1348  1.7415  0.7217
    1ACE    CH3    2  12.589  12.237   6.827  0.1453 -0.4302 -0.2486
    1ACE   HH32    3  12.601  12.238   6.719 -0.6729  0.5441 -0.3496
    1ACE   HH33    4  12.504  12.305   6.839  0.5754  0.9539 -3.9148
    1ACE      C    5  12.557  12.094   6.876 -0.3981 -0.7004  0.1391
    1ACE      O    6  12.529  12.009   6.791 -0.3522 -0.7140 -0.2398
    2ALA      N    7  12.574  12.061   7.005  0.1197 -0.3265  0.2524
    2ALA      H    8  12.583  12.137   7.070  0.2787  1.6308 -1.9120
    2ALA     CA    9  12.558  11.924   7.056 -0.3963 -0.3869  0.1761
    2ALA     HA   10  12.505  11.858   6.988  1.7145 -2.0004 -0.0390
    2ALA     CB   11  12.693  11.864   7.080 -0.4140 -0.0515  1.1328
    2ALA    HB1   12  12.739  11.916   7.165  2.1496  0.9464 -0.7356
    2ALA    HB2   13  12.689  11.757   7.102  1.8424 -0.3162  0.5279
    2ALA    HB3   14  12.748  11.862   6.986  1.2625 -2.0733  2.0733
    2ALA      C   15  12.473  11.928   7.185 -0.1137 -0.0998 -0.2327
    2ALA      O   16  12.460  12.035   7.249 -0.1320 -0.4591  0.0546
    3ALA      N   17  12.414  11.810   7.222  0.5237 -0.2785 -0.0388
    3ALA      H   18  12.436  11.722   7.178 -0.9334 -0.2367 -0.9583
    3ALA     CA   19  12.338  11.799   7.345 -0.2480 -0.1741 -0.2905
    3ALA     HA   20  12.271  11.883   7.364  0.3488  0.2701 -0.1313
    3ALA     CB   21  12.254  11.675   7.336 -0.4986  0.3298  0.0358
    3ALA    HB1   22  12.315  11.588   7.311 -0.0420  0.4285  0.7352
    3ALA    HB2   23  12.200  11.661   7.429 -1.5165  1.3994 -0.3609
    3ALA    HB3   24  12.181  11.694   7.257 -0.8066  0.4823  0.3564
    3ALA      C   25  12.430  11.787   7.475 -0.0433 -0.0366  0.3958
    3ALA      O   26  12.384  11.807   7.584 -0.9725 -0.5132 -0.0105
    4NME      N   27  12.563  11.777   7.455 -1.3564  0.4528 -0.3344
    4NME      H   28  12.583  11.770   7.356 -0.7608 -1.3432 -0.1214
    4NME    CH3   29  12.669  11.741   7.553  0.6842  0.0132 -0.1158
    4NME   HH31   30  12.620  11.736   7.650  2.2774  0.7914  0.7880
    4NME   HH32   31  12.718  11.647   7.527  3.8495  1.9851 -2.1257
    4NME   HH33   32  12.746  11.818   7.554  0.3083  0.3977  0.9146
  20.99041  20.99041  20.99041
