Protein
   32
    1ACE   HH31    1  14.436  11.162  11.240 -1.6253 -2.2549  0.8754
    1ACE    CH3    2  14.533  11.114  11.249 -0.5821 -0.3895  0.1470
    1ACE   HH32    3  14.610  11.157  11.185  0.1972 -2.0201 -0.0629
    1ACE   HH33    4  14.516  11.011  11.217 -3.7252  1.1380 -3.9281
    1ACE      C    5  14.567  11.117  11.392 -0.3652 -0.8386  0.2571
    1ACE      O    6  14.685  11.114  11.431  0.1571  0.1607 -0.0411
    2ALA      N    7  14.460  11.099  11.465  0.7754  0.1712  0.6129
    2ALA      H    8  14.366  11.099  11.428  0.2566 -1.6499  1.8367
    2ALA     CA    9  14.477  11.083  11.611  0.5126  0.1600 -0.3258
    2ALA     HA   10  14.375  11.080  11.650  0.2649 -0.3867 -1.0031
    2ALA     CB   11  14.531  10.942  11.638 -0.2698  0.2731  0.7810
    2ALA    HB1   12  14.621  10.923  11.580 -0.7777  0.1033  0.0344
    2ALA    HB2   13  14.549  10.924  11.744  0.5213 -0.0439  0.5994
    2ALA    HB3   14  14.454  10.875  11.601  1.8442 -0.5464 -2.6444
    2ALA      C   15  14.550  11.209  11.666 -0.0899 -0.0426  0.3673
    2ALA      O   16  14.496  11.321  11.650  0.0744 -0.2077 -0.1245
    3ALA      N   17  14.668  11.197  11.721 -0.2209 -0.1057  0.0306
    3ALA      H   18  14.702  11.104  11.740  2.1088  0.6058 -0.4233
    3ALA     CA   19  14.742  11.307  11.781  0.1708  0.1523  0.7175
    3ALA     HA   20  14.689  11.358  11.862  0.7905  1.2239  0.4652
    3ALA     CB   21  14.870  11.243  11.843  0.0474 -0.7678  0.7240
    3ALA    HB1   22  14.920  11.178  11.771  0.1083 -0.4360  0.4621
    3ALA    HB2   23  14.944  11.317  11.874  0.3192 -0.4536 -0.6056
    3ALA    HB3   24  14.848  11.180  11.929 -0.4348 -0.9500  0.4681
    3ALA      C   25  14.795  11.414  11.681  0.3727  0.2650 -0.0843
    3ALA      O   26  14.804  11.531  11.724  0.4992 -0.9656 -0.1538
    4NME      N   27  14.803  11.381  11.553 -0.0323 -0.4552 -0.4894
    4NME      H   28  14.770  11.289  11.527 -1.2511  0.0921 -0.9866
    4NME    CH3   29  14.823  11.473  11.444 -0.5800 -0.4221 -0.3037
    4NME   HH31   30  14.920  11.523  11.454 -0.8024  0.0139 -0.2972
    4NME   HH32   31  14.822  11.426  11.346  0.2470 -2.0043  0.4019
    4NME   HH33   32  14.755  11.556  11.462  1.2880  0.9793  0.7812
  20.99041  20.99041  20.99041
