Protein
   42
    1ACE   HH31    1  11.694   9.139   8.532 -0.3093  0.6177  0.4882
    1ACE    CH3    2  11.694   9.097   8.633 -0.4461 -0.1043  0.1964
    1ACE   HH32    3  11.774   9.025   8.649  2.7667  2.5066 -2.3110
    1ACE   HH33    4  11.603   9.042   8.658 -0.4385 -0.1146  0.2037
    1ACE      C    5  11.719   9.211   8.737  0.0699  0.8561  0.6525
    1ACE      O    6  11.821   9.223   8.802 -0.1201  0.0522  0.0203
    2ALA      N    7  11.608   9.287   8.744  0.1855 -0.2707 -0.3207
    2ALA      H    8  11.535   9.262   8.679  0.5661  1.3800 -1.4343
    2ALA     CA    9  11.580   9.415   8.806  0.0808  0.8219 -0.3689
    2ALA     HA   10  11.505   9.387   8.880  1.4490 -1.4606  0.2503
    2ALA     CB   11  11.701   9.464   8.888  0.1899 -0.1434 -0.2005
    2ALA    HB1   12  11.665   9.545   8.952  1.3130 -0.1327  0.4364
    2ALA    HB2   13  11.749   9.391   8.953  2.9746  0.8272 -1.0129
    2ALA    HB3   14  11.780   9.502   8.824 -0.6386  0.5574 -0.8182
    2ALA      C   15  11.523   9.526   8.716  0.0215 -0.7503 -1.0126
    2ALA      O   16  11.535   9.529   8.596 -0.3253 -0.3580 -0.1608
    3ALA      N   17  11.437   9.612   8.777  0.8648 -0.0096 -0.1770
    3ALA      H   18  11.401   9.582   8.866  0.8843  1.5649  0.3825
    3ALA     CA   19  11.388   9.738   8.720  0.7759 -0.4872  0.3831
    3ALA     HA   20  11.353   9.807   8.795  0.6319 -1.4432  1.2109
    3ALA     CB   21  11.500   9.823   8.656 -0.2871  0.6257  0.3480
    3ALA    HB1   22  11.581   9.825   8.728 -1.7613  0.4408  2.0734
    3ALA    HB2   23  11.527   9.788   8.556 -0.3123 -0.2381  0.6271
    3ALA    HB3   24  11.470   9.927   8.644 -0.8802  0.3926 -0.2811
    3ALA      C   25  11.267   9.718   8.622 -0.2695  0.6797  0.9801
    3ALA      O   26  11.158   9.768   8.648  0.1742  0.0085 -0.0135
    4ALA      N   27  11.290   9.637   8.517 -0.3492  0.2092 -0.6175
    4ALA      H   28  11.384   9.601   8.514  0.2602  1.7716 -1.5016
    4ALA     CA   29  11.205   9.649   8.397  0.0375 -0.7160 -0.4264
    4ALA     HA   30  11.177   9.754   8.398 -1.0940 -0.9911 -0.8936
    4ALA     CB   31  11.298   9.631   8.282  0.1640  0.6462 -0.8378
    4ALA    HB1   32  11.386   9.694   8.289 -0.3871  1.4509 -0.9561
    4ALA    HB2   33  11.337   9.530   8.271 -0.2163  0.4095 -0.0891
    4ALA    HB3   34  11.233   9.658   8.199 -2.3564 -2.5308 -0.1022
    4ALA      C   35  11.083   9.560   8.401 -0.3353 -0.5438  0.1469
    4ALA      O   36  11.061   9.482   8.307  0.1011 -0.3649  0.1462
    5NME      N   37  10.999   9.562   8.511  0.1377 -0.2041  0.0753
    5NME      H   38  11.026   9.625   8.585  0.0378  0.8977 -0.7964
    5NME    CH3   39  10.884   9.476   8.542 -0.5343 -0.4447  0.1951
    5NME   HH31   40  10.813   9.549   8.581  0.2816  1.2372 -1.3376
    5NME   HH32   41  10.851   9.433   8.448  1.0836 -1.8053  0.2180
    5NME   HH33   42  10.918   9.401   8.613 -0.7975  0.1935  1.0148
  20.91516  20.91516  20.91516
