Protein
   32
    1ACE   HH31    1   9.045  11.695  11.816 -0.9589  0.2937  0.2251
    1ACE    CH3    2   9.101  11.776  11.769 -0.0191 -0.6832 -0.3687
    1ACE   HH32    3   9.024  11.846  11.737  0.3002 -0.0151  0.3101
    1ACE   HH33    4   9.164  11.757  11.682 -0.1866  4.2960 -1.8495
    1ACE      C    5   9.183  11.847  11.874 -0.2338 -0.9390  0.2564
    1ACE      O    6   9.278  11.788  11.932 -0.2157 -0.3071 -0.0354
    2ALA      N    7   9.148  11.970  11.911  0.7219 -0.2360 -0.4572
    2ALA      H    8   9.074  12.019  11.864  0.2140 -0.2657  0.2973
    2ALA     CA    9   9.221  12.064  11.993 -0.0626 -1.1842  0.7252
    2ALA     HA   10   9.163  12.156  11.987 -0.0613 -1.2024  0.3943
    2ALA     CB   11   9.225  12.024  12.140 -0.4282 -0.2723 -0.6585
    2ALA    HB1   12   9.130  12.005  12.192  0.5132 -1.7299  0.6276
    2ALA    HB2   13   9.282  11.931  12.145 -0.8913 -0.6122 -1.4298
    2ALA    HB3   14   9.283  12.105  12.183  2.0838 -1.5498 -1.4382
    2ALA      C   15   9.360  12.102  11.935 -0.2751 -0.2466 -0.1772
    2ALA      O   16   9.372  12.208  11.879  1.0309  0.0224  0.3188
    3ALA      N   17   9.469  12.026  11.971  0.0661 -0.6858 -0.1549
    3ALA      H   18   9.451  11.941  12.023 -1.2601 -1.0122 -1.0871
    3ALA     CA   19   9.610  12.052  11.935  0.3211  0.1863  0.4907
    3ALA     HA   20   9.629  12.154  11.970 -1.1942  1.1412 -1.2688
    3ALA     CB   21   9.697  11.957  12.016  0.2752 -0.9958  0.2837
    3ALA    HB1   22   9.664  11.853  12.003  0.7669 -1.3636  1.7918
    3ALA    HB2   23   9.800  11.976  11.986  0.3093 -1.4835  0.0822
    3ALA    HB3   24   9.682  11.980  12.121  0.6168 -0.3829  0.2027
    3ALA      C   25   9.653  12.051  11.780  0.2981  0.2318 -0.1519
    3ALA      O   26   9.732  11.967  11.739 -0.0757  0.1527  0.0282
    4NME      N   27   9.599  12.141  11.701 -0.4884  0.2457  0.5970
    4NME      H   28   9.519  12.189  11.740  0.3831  2.2367  0.0505
    4NME    CH3   29   9.622  12.144  11.560  0.1419 -0.5775 -0.7875
    4NME   HH31   30   9.543  12.085  11.513 -0.8927 -0.3541  0.6107
    4NME   HH32   31   9.622  12.246  11.523 -0.2374  0.3045  1.4703
    4NME   HH33   32   9.714  12.093  11.531 -0.4920 -1.1366 -1.9089
  20.99041  20.99041  20.99041
