Protein
   32
    1ACE   HH31    1   8.504  11.513  12.327 -2.2487  0.0975 -0.9331
    1ACE    CH3    2   8.502  11.412  12.367  0.2742  0.3523  0.0216
    1ACE   HH32    3   8.588  11.376  12.423  0.4725 -1.3291 -1.2519
    1ACE   HH33    4   8.503  11.345  12.281  0.8168 -2.4287  2.0471
    1ACE      C    5   8.364  11.387  12.426 -0.2903 -0.3171 -0.5176
    1ACE      O    6   8.297  11.296  12.383  0.2871  0.0533 -0.2570
    2ALA      N    7   8.332  11.461  12.530  0.6056 -0.4875  0.2030
    2ALA      H    8   8.396  11.538  12.548  0.1050  0.2110 -0.8537
    2ALA     CA    9   8.201  11.453  12.599 -0.1166 -1.1919  0.4611
    2ALA     HA   10   8.118  11.430  12.532  1.1480  0.2912 -1.7100
    2ALA     CB   11   8.199  11.346  12.707 -0.0006 -0.1072  0.3169
    2ALA    HB1   12   8.294  11.353  12.759 -1.4623 -1.0163  3.3245
    2ALA    HB2   13   8.119  11.351  12.781  0.5931  1.6477  0.8986
    2ALA    HB3   14   8.201  11.254  12.648  1.3482  0.3778 -0.4319
    2ALA      C   15   8.169  11.591  12.661 -0.0242 -0.8044  0.2655
    2ALA      O   16   8.260  11.676  12.662  0.5042 -0.3204  0.4556
    3ALA      N   17   8.049  11.618  12.718  0.3593  0.5350  0.4289
    3ALA      H   18   7.969  11.562  12.691 -0.1419  0.6208  1.6419
    3ALA     CA   19   8.017  11.736  12.804  0.6545  0.7940 -0.1215
    3ALA     HA   20   7.921  11.721  12.854  2.2362 -3.1463  2.1352
    3ALA     CB   21   8.118  11.735  12.919  0.2945 -0.0483  0.0615
    3ALA    HB1   22   8.105  11.644  12.978  0.6985 -0.1622 -0.0227
    3ALA    HB2   23   8.218  11.750  12.879  1.4427 -0.3935  2.6024
    3ALA    HB3   24   8.111  11.819  12.987  3.3694  0.0460  0.3904
    3ALA      C   25   7.994  11.865  12.726  0.7223  0.5328  0.0369
    3ALA      O   26   7.894  11.934  12.749  0.1445  0.5954  0.6835
    4NME      N   27   8.096  11.904  12.647  0.4377  0.2089 -0.2885
    4NME      H   28   8.183  11.851  12.642 -0.3411 -1.0858 -0.6735
    4NME    CH3   29   8.096  12.022  12.565 -0.1589 -0.2706 -0.3519
    4NME   HH31   30   8.146  12.101  12.622  0.7888 -0.0617 -1.4503
    4NME   HH32   31   8.164  12.009  12.481 -0.3190 -1.0792 -0.3601
    4NME   HH33   32   7.991  12.044  12.547 -0.5453  0.4270  2.2876
  20.99041  20.99041  20.99041
