Protein
   42
    1ACE   HH31    1   9.517   7.690  14.724  0.0081 -0.4348 -0.7970
    1ACE    CH3    2   9.620   7.723  14.740 -0.1780  0.0573 -0.5963
    1ACE   HH32    3   9.611   7.831  14.755 -2.1557 -0.0618 -0.5439
    1ACE   HH33    4   9.691   7.700  14.660  0.2437 -0.8940  0.0323
    1ACE      C    5   9.673   7.670  14.869  0.5730  0.1311  0.3730
    1ACE      O    6   9.600   7.605  14.942  0.5223 -0.7502  0.9995
    2ALA      N    7   9.800   7.688  14.897  0.0660  0.2764 -0.2958
    2ALA      H    8   9.861   7.738  14.834  1.3089  1.2906  1.5864
    2ALA     CA    9   9.857   7.636  15.024  0.1511  0.1752  0.1117
    2ALA     HA   10   9.782   7.602  15.096  1.5920 -0.3764  1.4223
    2ALA     CB   11   9.936   7.504  14.998 -0.4443 -0.0343  0.4782
    2ALA    HB1   12   9.910   7.451  14.907 -0.1816 -1.6341  1.2890
    2ALA    HB2   13  10.043   7.525  15.003 -0.1228 -1.8069  1.7441
    2ALA    HB3   14   9.912   7.440  15.083  1.5565  0.2631  1.3382
    2ALA      C   15   9.944   7.742  15.092 -0.2759  0.0849 -0.1922
    2ALA      O   16   9.937   7.860  15.056 -0.2504  0.5658  0.6912
    3ALA      N   17  10.030   7.711  15.194  0.7936  0.1673  0.7038
    3ALA      H   18  10.033   7.613  15.217 -0.9277 -0.3558 -0.9978
    3ALA     CA   19  10.136   7.796  15.261  1.3684  0.2830 -0.4086
    3ALA     HA   20  10.177   7.742  15.345 -1.0669  0.2174  0.8248
    3ALA     CB   21  10.250   7.819  15.173 -0.0689 -0.1027  0.0150
    3ALA    HB1   22  10.277   7.724  15.127  1.4233  0.1259  0.3549
    3ALA    HB2   23  10.220   7.879  15.086 -2.2177 -0.1825  0.6281
    3ALA    HB3   24  10.332   7.862  15.229 -0.4875 -0.9705  1.3134
    3ALA      C   25  10.089   7.918  15.336  1.5816 -0.4494 -0.5206
    3ALA      O   26  10.170   7.997  15.380 -0.0415 -0.0249 -0.0635
    4ALA      N   27   9.957   7.942  15.337 -0.1278  0.3582 -0.2523
    4ALA      H   28   9.906   7.873  15.284 -2.3716  1.0950  0.8385
    4ALA     CA   29   9.871   8.041  15.406  0.1730 -0.6892  0.5410
    4ALA     HA   30   9.839   8.106  15.324  1.5356  0.6699  1.0329
    4ALA     CB   31   9.752   7.964  15.471 -0.5793 -0.3618  0.0627
    4ALA    HB1   32   9.709   7.886  15.407 -2.4343 -0.6136  1.5094
    4ALA    HB2   33   9.784   7.924  15.566 -0.0538 -1.5532 -0.5945
    4ALA    HB3   34   9.676   8.038  15.498  0.4617  0.3443  1.1468
    4ALA      C   35   9.926   8.153  15.497 -0.8176 -0.1093 -0.2728
    4ALA      O   36   9.850   8.239  15.541  0.7499 -0.2593 -0.0297
    5NME      N   37  10.044   8.144  15.558 -0.0692 -0.6283 -0.1829
    5NME      H   38  10.113   8.078  15.528  0.7368 -0.2205  0.7135
    5NME    CH3   39  10.097   8.250  15.640 -0.4185  0.2382 -0.8079
    5NME   HH31   40  10.038   8.260  15.731  0.8207 -2.1963  0.3798
    5NME   HH32   41  10.195   8.219  15.678  0.7989  2.5597 -1.8336
    5NME   HH33   42  10.101   8.344  15.585  0.1924 -0.9775 -2.9406
  20.91516  20.91516  20.91516
