Protein
   60
    1ACE   HH31    1  17.225  21.424  22.968 -0.2754  0.9775 -0.9705
    1ACE    CH3    2  17.331  21.397  22.971 -0.4072  0.5521  0.4776
    1ACE   HH32    3  17.397  21.484  22.968  0.9611 -0.4966 -2.3529
    1ACE   HH33    4  17.354  21.353  23.068  0.9241  0.5377  0.1692
    1ACE      C    5  17.358  21.293  22.864  0.2722  0.3500  0.2900
    1ACE      O    6  17.368  21.175  22.894 -0.6355  0.2929  0.1152
    2TRP      N    7  17.354  21.335  22.736 -0.1659 -0.6084 -0.0649
    2TRP      H    8  17.365  21.266  22.664  1.1765 -0.0003 -0.4793
    2TRP     CA    9  17.338  21.470  22.685  0.0280  0.3348 -0.4957
    2TRP     HA   10  17.416  21.529  22.734 -1.4883 -0.0816  2.5941
    2TRP     CB   11  17.385  21.473  22.541  0.0613 -0.4225  0.5250
    2TRP    HB1   12  17.307  21.422  22.484 -0.3920  1.6699 -0.8150
    2TRP    HB2   13  17.479  21.419  22.529  0.2715  0.2528 -1.2066
    2TRP     CG   14  17.411  21.604  22.480  0.5595  0.1079 -0.1048
    2TRP    CD1   15  17.525  21.674  22.494  0.4561  0.8798  0.1731
    2TRP    HD1   16  17.607  21.647  22.560  0.3063  2.1586  0.9204
    2TRP    NE1   17  17.516  21.790  22.423  0.1431 -0.5239  0.4026
    2TRP    HE1   18  17.587  21.862  22.415 -0.0430 -0.4974 -1.3392
    2TRP    CE2   19  17.402  21.795  22.344  0.4657 -0.3361 -0.4234
    2TRP    CZ2   20  17.349  21.889  22.255  0.4732  0.1644  0.4635
    2TRP    HZ2   21  17.400  21.982  22.234 -1.8410  1.0282 -2.0308
    2TRP    CH2   22  17.225  21.868  22.191 -0.8185 -0.6337  0.6939
    2TRP    HH2   23  17.192  21.929  22.108 -0.5054  0.7414  1.5584
    2TRP    CZ3   24  17.157  21.756  22.230  0.6241  0.1472 -0.4381
    2TRP    HZ3   25  17.057  21.738  22.193  0.1064 -2.0321  1.8543
    2TRP    CE3   26  17.204  21.667  22.326 -0.7794  0.1989 -0.8592
    2TRP    HE3   27  17.152  21.582  22.367 -0.8215  1.6994  2.5193
    2TRP    CD2   28  17.334  21.682  22.384  0.1953 -0.1245 -0.6645
    2TRP      C   29  17.201  21.528  22.702  0.2405 -0.1930  0.0708
    2TRP      O   30  17.103  21.458  22.705  0.4029 -0.0876 -0.0336
    3TRP      N   31  17.170  21.658  22.718  0.1594  0.0017  0.1134
    3TRP      H   32  17.072  21.681  22.721  0.0475 -0.3284 -0.6884
    3TRP     CA   33  17.261  21.768  22.745 -0.0367  0.3140  0.3041
    3TRP     HA   34  17.360  21.742  22.707  0.0942 -0.9507  1.4307
    3TRP     CB   35  17.259  21.790  22.899  0.3722 -0.0920  0.4690
    3TRP    HB1   36  17.256  21.695  22.951  0.6043 -0.4863 -0.2142
    3TRP    HB2   37  17.359  21.827  22.922  0.3106  1.4742 -1.4796
    3TRP     CG   38  17.149  21.868  22.967  0.0780  0.1750 -0.7659
    3TRP    CD1   39  17.146  22.006  22.974  0.4653  0.1259 -0.0852
    3TRP    HD1   40  17.218  22.076  22.937 -1.5872  1.8222 -1.0697
    3TRP    NE1   41  17.036  22.043  23.055 -1.1213 -0.5080 -0.2090
    3TRP    HE1   42  17.019  22.141  23.072 -0.3511 -0.2779 -0.7145
    3TRP    CE2   43  16.961  21.940  23.104 -0.3693 -0.1029  0.3170
    3TRP    CZ2   44  16.854  21.929  23.200 -0.0261  0.4598 -0.1722
    3TRP    HZ2   45  16.812  22.018  23.245 -0.7922 -1.2708  2.8312
    3TRP    CH2   46  16.795  21.801  23.223 -0.1954 -0.0681  0.1117
    3TRP    HH2   47  16.709  21.794  23.287 -0.0324 -0.9616  0.2560
    3TRP    CZ3   48  16.860  21.687  23.157 -0.2450  0.1564 -0.1710
    3TRP    HZ3   49  16.818  21.590  23.178  3.8933 -1.9185 -0.6398
    3TRP    CE3   50  16.976  21.696  23.081  0.0613  0.1315  0.2957
    3TRP    HE3   51  17.034  21.610  23.050  1.7423  1.0983  0.6780
    3TRP    CD2   52  17.028  21.822  23.048 -0.5551 -0.2365  1.0339
    3TRP      C   53  17.230  21.899  22.664 -0.6506  0.3988 -0.1459
    3TRP      O   54  17.315  21.987  22.659  0.0964 -0.2956 -0.5230
    4NME      N   55  17.116  21.908  22.594 -0.0581  0.4740  0.0001
    4NME      H   56  17.059  21.826  22.580 -0.0139  0.1894  1.3412
    4NME    CH3   57  17.080  22.015  22.503 -0.2456 -0.2712 -0.3767
    4NME   HH31   58  17.168  22.047  22.447  1.4071  0.1103  2.2966
    4NME   HH32   59  17.013  21.975  22.427  1.5996 -2.4376 -0.9732
    4NME   HH33   60  17.042  22.101  22.557 -0.1520  0.0780 -0.8612
  41.12396  41.12396  41.12396
