Protein
   32
    1ACE   HH31    1   7.712  12.340   6.738  2.7816 -2.3933  2.6466
    1ACE    CH3    2   7.723  12.421   6.809  0.5654  0.2540  0.1865
    1ACE   HH32    3   7.828  12.450   6.804  0.5778  0.2539  0.4535
    1ACE   HH33    4   7.704  12.391   6.911 -0.1065 -0.0991 -0.0342
    1ACE      C    5   7.639  12.535   6.750 -0.0074  0.2800 -0.5875
    1ACE      O    6   7.684  12.646   6.722 -0.1682  0.2648  0.2977
    2ALA      N    7   7.504  12.518   6.734 -0.3136 -0.0388 -0.0384
    2ALA      H    8   7.478  12.426   6.701 -0.0713  0.2786 -1.1484
    2ALA     CA    9   7.411  12.630   6.707 -0.1615  0.0599 -0.1909
    2ALA     HA   10   7.467  12.706   6.652  0.4830  0.2133  0.6570
    2ALA     CB   11   7.291  12.581   6.625 -0.1652  0.7606  0.5558
    2ALA    HB1   12   7.219  12.662   6.627 -0.9064  0.1065  2.4739
    2ALA    HB2   13   7.308  12.538   6.526 -1.3566  1.8547 -0.1446
    2ALA    HB3   14   7.246  12.493   6.672 -1.9331  1.1299 -0.3576
    2ALA      C   15   7.383  12.692   6.846  0.1144 -0.2622 -0.1162
    2ALA      O   16   7.269  12.687   6.899 -0.4709  0.0610  0.8763
    3ALA      N   17   7.489  12.762   6.903  0.1925  0.7869 -0.1873
    3ALA      H   18   7.574  12.753   6.850 -0.3834 -0.7363 -0.9113
    3ALA     CA   19   7.492  12.837   7.028  0.5094  0.5891 -0.3196
    3ALA     HA   20   7.398  12.874   7.069 -0.7940 -0.1024 -2.4989
    3ALA     CB   21   7.550  12.742   7.127 -0.3329  0.9307  0.0230
    3ALA    HB1   22   7.649  12.712   7.093  0.3179  0.5842  2.1187
    3ALA    HB2   23   7.553  12.798   7.221  0.9247  1.4734 -0.3301
    3ALA    HB3   24   7.481  12.657   7.137 -1.0248  1.6832  2.2479
    3ALA      C   25   7.592  12.957   7.012 -0.2049  0.4194 -0.2932
    3ALA      O   26   7.680  12.959   6.924 -0.2459 -0.9818 -0.0996
    4NME      N   27   7.585  13.061   7.100  0.1500  0.1708  0.3997
    4NME      H   28   7.533  13.056   7.187 -0.6461  1.2489  0.0046
    4NME    CH3   29   7.669  13.179   7.083 -0.4105 -0.4707 -0.1379
    4NME   HH31   30   7.618  13.266   7.042  0.8563  0.4004  0.0709
    4NME   HH32   31   7.693  13.212   7.184 -0.4809 -0.3875 -0.1479
    4NME   HH33   32   7.757  13.152   7.025 -0.3017 -0.7949  0.1712
  20.99041  20.99041  20.99041
