Protein
   42
    1ACE   HH31    1   6.454   5.803   3.965  0.5127 -0.1098  1.7243
    1ACE    CH3    2   6.555   5.803   3.925 -0.1571 -0.1699 -0.0605
    1ACE   HH32    3   6.561   5.877   3.846  3.4241 -0.8372 -0.5646
    1ACE   HH33    4   6.587   5.708   3.880 -1.7622 -0.8319  0.1376
    1ACE      C    5   6.656   5.837   4.030 -0.0582  0.0914  0.2281
    1ACE      O    6   6.720   5.742   4.082  0.1268  0.0635 -0.4797
    2ALA      N    7   6.675   5.969   4.060 -0.3856  0.2143  0.2478
    2ALA      H    8   6.616   6.037   4.015  1.6100  1.8032 -0.1561
    2ALA     CA    9   6.772   6.019   4.155  0.7283 -0.8618 -0.3187
    2ALA     HA   10   6.872   6.015   4.112  0.6864  2.0581 -0.8710
    2ALA     CB   11   6.739   6.163   4.174 -0.5341 -0.1156 -0.2741
    2ALA    HB1   12   6.815   6.209   4.238 -1.1274 -0.0631  0.4061
    2ALA    HB2   13   6.724   6.213   4.079 -1.1561  0.5336  0.1455
    2ALA    HB3   14   6.644   6.172   4.226 -1.3674 -0.4933 -1.7047
    2ALA      C   15   6.766   5.947   4.295  0.3683  0.4780  0.1272
    2ALA      O   16   6.653   5.949   4.350 -0.2141  0.0852  0.1984
    3ALA      N   17   6.869   5.897   4.364  0.0873  0.4887 -0.4161
    3ALA      H   18   6.839   5.848   4.448 -2.0085 -3.2583 -3.0328
    3ALA     CA   19   7.014   5.921   4.337  0.5060 -0.5099  0.1325
    3ALA     HA   20   7.025   6.026   4.309 -0.8126 -0.2551  0.5178
    3ALA     CB   21   7.091   5.888   4.463 -0.1118  0.1199 -0.2366
    3ALA    HB1   22   7.055   5.963   4.534 -1.1797 -1.7417  1.2881
    3ALA    HB2   23   7.077   5.782   4.479 -1.3664  0.0568 -1.5866
    3ALA    HB3   24   7.198   5.907   4.450 -0.6366  1.7559 -2.9446
    3ALA      C   25   7.073   5.840   4.215  0.1148  0.7073 -0.0942
    3ALA      O   26   7.176   5.874   4.157 -0.3421  0.2100 -0.0127
    4ALA      N   27   7.010   5.725   4.178 -0.4814  0.0730 -0.7721
    4ALA      H   28   6.918   5.718   4.219  0.3145 -0.2779  1.0418
    4ALA     CA   29   7.061   5.617   4.097 -0.2745  0.1088  0.2357
    4ALA     HA   30   6.996   5.530   4.107 -1.4397  0.6454 -2.0621
    4ALA     CB   31   7.053   5.655   3.946  0.3533 -0.1035  0.3335
    4ALA    HB1   32   7.085   5.756   3.923  0.3159 -0.7545 -3.0680
    4ALA    HB2   33   7.115   5.583   3.892  0.2514  0.2908 -0.3379
    4ALA    HB3   34   6.949   5.655   3.914  0.6141 -1.3879 -0.5759
    4ALA      C   35   7.203   5.566   4.128  0.4987  0.6275 -0.0195
    4ALA      O   36   7.206   5.446   4.167 -0.1855 -0.5176 -0.2964
    5NME      N   37   7.318   5.635   4.097  0.1573  0.4697 -0.3388
    5NME      H   38   7.301   5.729   4.066  0.6857  0.4978 -0.5491
    5NME    CH3   39   7.453   5.568   4.101 -0.2945 -0.8159 -0.1065
    5NME   HH31   40   7.461   5.517   4.197 -1.6605  0.6431  0.8361
    5NME   HH32   41   7.455   5.493   4.022 -1.4865  0.3418 -1.2640
    5NME   HH33   42   7.527   5.647   4.087  0.0756 -0.9609  0.9390
  20.91516  20.91516  20.91516
