Protein
   42
    1ACE   HH31    1  13.904  11.089   9.003 -0.0240 -1.7776 -1.5712
    1ACE    CH3    2  13.853  11.016   9.065 -0.3090 -0.5798 -0.3405
    1ACE   HH32    3  13.787  11.060   9.140  0.8021  1.1233 -0.3163
    1ACE   HH33    4  13.930  10.956   9.113  0.5684  0.7006 -0.1330
    1ACE      C    5  13.774  10.917   8.985  0.9949 -0.0879 -0.4465
    1ACE      O    6  13.799  10.913   8.859 -0.1292 -0.3662 -0.7595
    2ALA      N    7  13.677  10.846   9.049 -0.2396 -0.0611 -0.3771
    2ALA      H    8  13.656  10.858   9.147 -1.0448  0.6369 -0.6185
    2ALA     CA    9  13.575  10.781   8.964  0.0365  0.6994 -0.4574
    2ALA     HA   10  13.619  10.730   8.878  1.0355  0.8301 -0.0347
    2ALA     CB   11  13.503  10.680   9.053  0.0779  0.2179 -0.4300
    2ALA    HB1   12  13.456  10.739   9.131 -1.9903  0.2290 -1.5930
    2ALA    HB2   13  13.432  10.619   8.997 -0.9873 -0.4376  1.5340
    2ALA    HB3   14  13.579  10.610   9.089 -0.0823  0.2393 -0.0572
    2ALA      C   15  13.473  10.883   8.908 -0.1679 -0.2671  0.2469
    2ALA      O   16  13.450  10.978   8.979 -0.2848 -0.8150 -0.0313
    3ALA      N   17  13.418  10.883   8.782 -0.9989  0.3453 -0.5151
    3ALA      H   18  13.384  10.975   8.759  1.4301  1.6597  0.6232
    3ALA     CA   19  13.446  10.791   8.671 -0.0268 -0.2635  0.4195
    3ALA     HA   20  13.458  10.694   8.720 -0.0228  1.2608  3.7511
    3ALA     CB   21  13.322  10.774   8.577 -0.2848  0.8274  0.5035
    3ALA    HB1   22  13.355  10.711   8.494  0.2026  0.0337  1.2854
    3ALA    HB2   23  13.242  10.729   8.635  0.8197 -0.1692  1.3111
    3ALA    HB3   24  13.283  10.871   8.546 -1.5115  0.2426  0.1850
    3ALA      C   25  13.572  10.820   8.595 -0.1804 -0.1400  0.1425
    3ALA      O   26  13.669  10.749   8.621 -0.2552  0.2924  0.0493
    4ALA      N   27  13.573  10.909   8.495 -0.2647  0.0521  0.7616
    4ALA      H   28  13.488  10.962   8.482 -0.9128 -1.5334 -2.4335
    4ALA     CA   29  13.700  10.955   8.434  0.3510  0.4129 -0.3530
    4ALA     HA   30  13.774  10.881   8.464  1.3263  1.7695  0.7006
    4ALA     CB   31  13.687  10.954   8.283 -0.1708 -0.5330  0.4045
    4ALA    HB1   32  13.644  10.864   8.239  2.0498 -0.5943 -1.8010
    4ALA    HB2   33  13.633  11.040   8.243 -0.2895 -0.4505  0.7427
    4ALA    HB3   34  13.776  10.983   8.227 -1.5934  1.0871 -1.1501
    4ALA      C   35  13.760  11.088   8.495 -1.1136  0.5000 -0.0020
    4ALA      O   36  13.761  11.194   8.434  0.0827  0.2089  0.0815
    5NME      N   37  13.795  11.088   8.622  0.3649  0.8148 -0.5478
    5NME      H   38  13.793  10.993   8.658  1.8518  0.0566 -2.3456
    5NME    CH3   39  13.835  11.203   8.703 -0.5485 -0.3411 -0.3707
    5NME   HH31   40  13.874  11.162   8.796  0.6785  1.4670 -0.0369
    5NME   HH32   41  13.916  11.261   8.658 -2.1709  2.1095 -0.3373
    5NME   HH33   42  13.754  11.276   8.712  1.1283  1.5007  0.3717
  20.91516  20.91516  20.91516
