Protein
   32
    1ACE   HH31    1  11.187   6.586  11.994  0.1317  1.1274 -0.2922
    1ACE    CH3    2  11.153   6.587  11.890 -0.5143  0.3050 -0.0903
    1ACE   HH32    3  11.221   6.646  11.828  1.7263 -1.2626  0.7321
    1ACE   HH33    4  11.051   6.624  11.876 -0.2900  1.3040  0.7522
    1ACE      C    5  11.156   6.446  11.835 -0.1270 -0.0735  0.2089
    1ACE      O    6  11.167   6.354  11.914 -0.5376  0.3790  0.1070
    2ALA      N    7  11.138   6.429  11.704 -0.6239 -0.0232  0.1899
    2ALA      H    8  11.145   6.506  11.639  0.6025 -1.5218 -1.5382
    2ALA     CA    9  11.161   6.294  11.643  0.6513 -0.3686  0.3709
    2ALA     HA   10  11.203   6.221  11.712 -2.2551 -2.7098 -0.1194
    2ALA     CB   11  11.022   6.232  11.603  0.0426 -0.4164  0.4575
    2ALA    HB1   12  10.951   6.238  11.686 -1.7920 -0.1757 -1.0567
    2ALA    HB2   13  10.966   6.280  11.523  0.4579 -0.4850  0.1245
    2ALA    HB3   14  11.029   6.127  11.574  1.3085 -1.1416  3.0339
    2ALA      C   15  11.258   6.308  11.525 -0.2437  0.0039 -0.0941
    2ALA      O   16  11.223   6.270  11.410 -0.5323 -0.4024 -0.2674
    3ALA      N   17  11.365   6.377  11.550 -0.1614  0.1435 -0.1720
    3ALA      H   18  11.385   6.394  11.647  1.7910  1.9922 -0.8172
    3ALA     CA   19  11.469   6.422  11.455  0.7948  0.8860 -0.3832
    3ALA     HA   20  11.447   6.362  11.367 -0.5393 -0.7754  1.0070
    3ALA     CB   21  11.452   6.573  11.435  0.4049 -0.0316 -0.9104
    3ALA    HB1   22  11.359   6.588  11.381 -0.6590 -1.1753  0.5186
    3ALA    HB2   23  11.449   6.625  11.531 -0.1668 -0.9702 -0.4131
    3ALA    HB3   24  11.542   6.605  11.382  1.5394  0.1186  0.9861
    3ALA      C   25  11.610   6.389  11.508 -0.4037 -0.2718 -0.4086
    3ALA      O   26  11.647   6.419  11.623 -0.5130 -0.3976  0.3092
    4NME      N   27  11.681   6.309  11.427 -0.3433  0.5260 -0.1492
    4NME      H   28  11.637   6.276  11.342  2.1907 -0.9905 -0.9942
    4NME    CH3   29  11.823   6.286  11.438  0.5762  0.5603  0.3381
    4NME   HH31   30  11.871   6.327  11.349 -1.0395  0.1395 -0.7833
    4NME   HH32   31  11.859   6.337  11.527 -0.1740  1.5848  0.0721
    4NME   HH33   32  11.854   6.181  11.436  1.3569  0.8053 -1.1750
  20.99041  20.99041  20.99041
