Protein
   32
    1ACE   HH31    1  10.900  11.292  14.337  0.5449  0.1819 -0.0810
    1ACE    CH3    2  10.898  11.339  14.436  0.1285 -0.1008  0.0527
    1ACE   HH32    3  10.799  11.366  14.473 -0.1745 -0.2075 -0.6699
    1ACE   HH33    4  10.951  11.433  14.425 -1.3076  0.7682  0.2100
    1ACE      C    5  10.951  11.249  14.544  0.0341 -0.4390  0.1893
    1ACE      O    6  11.064  11.260  14.587  0.4086 -0.8362  0.1240
    2ALA      N    7  10.864  11.165  14.597  0.0299 -1.2284 -0.4352
    2ALA      H    8  10.773  11.177  14.553  0.2701 -0.9156 -0.8731
    2ALA     CA    9  10.882  11.070  14.710 -0.5718  0.8922 -0.6638
    2ALA     HA   10  10.790  11.067  14.768  0.0205  0.7554  0.2811
    2ALA     CB   11  10.880  10.928  14.652  0.0765  0.1605  0.6649
    2ALA    HB1   12  10.788  10.912  14.597 -0.0156 -0.8482  1.0971
    2ALA    HB2   13  10.960  10.917  14.579 -0.2141  0.7832  0.2413
    2ALA    HB3   14  10.877  10.850  14.728 -3.9868 -0.7973 -0.2120
    2ALA      C   15  10.999  11.090  14.808 -0.2923 -0.5925  0.3549
    2ALA      O   16  10.980  11.163  14.901  0.0020 -0.0353 -0.1751
    3ALA      N   17  11.110  11.019  14.791  0.2088 -1.0264 -0.5077
    3ALA      H   18  11.126  10.980  14.700  1.2763  1.6405 -1.5784
    3ALA     CA   19  11.233  11.023  14.880 -0.1230 -0.0613 -0.1805
    3ALA     HA   20  11.187  11.034  14.978 -1.2134  0.3608 -0.7218
    3ALA     CB   21  11.301  10.893  14.876  0.5974 -0.1844 -0.5921
    3ALA    HB1   22  11.225  10.817  14.893  0.6713 -0.2085 -0.3671
    3ALA    HB2   23  11.361  10.883  14.785 -0.2400  1.9281 -1.4501
    3ALA    HB3   24  11.362  10.882  14.966 -1.3644  0.6782  0.9246
    3ALA      C   25  11.332  11.139  14.862 -0.6319  0.0533 -0.2583
    3ALA      O   26  11.418  11.155  14.950  0.4827  0.1348 -0.6234
    4NME      N   27  11.313  11.225  14.763 -0.4011 -0.3794 -0.4617
    4NME      H   28  11.229  11.210  14.709 -2.1278  1.7408  1.3713
    4NME    CH3   29  11.396  11.351  14.750  0.2892  0.6631 -0.1638
    4NME   HH31   30  11.340  11.443  14.770  2.0801  1.9081 -0.6713
    4NME   HH32   31  11.488  11.349  14.808 -0.2985  1.1259  0.8279
    4NME   HH33   32  11.424  11.370  14.647  2.1850 -0.2581  0.1289
  20.99041  20.99041  20.99041
