Protein
   32
    1ACE   HH31    1  13.054  10.055   8.373 -0.6867  2.5763  3.8005
    1ACE    CH3    2  12.987  10.121   8.316  0.1126 -0.2498 -0.9612
    1ACE   HH32    3  13.055  10.191   8.267  0.2194 -0.1480 -0.6774
    1ACE   HH33    4  12.925  10.181   8.383 -1.5974 -0.1464 -2.5891
    1ACE      C    5  12.902  10.053   8.213  0.4425 -0.5483 -0.1598
    1ACE      O    6  12.872  10.119   8.114 -0.0545 -0.7344  0.1570
    2ALA      N    7  12.856   9.930   8.239 -0.0322 -0.4951 -0.0293
    2ALA      H    8  12.883   9.884   8.324 -1.4309 -1.3487 -0.0227
    2ALA     CA    9  12.763   9.868   8.151  0.4323  0.1129  0.4949
    2ALA     HA   10  12.714   9.937   8.082 -0.8470 -2.4338 -1.3247
    2ALA     CB   11  12.822   9.755   8.056  0.8235  0.0561 -0.2749
    2ALA    HB1   12  12.856   9.668   8.112 -0.9415  0.6723  1.9293
    2ALA    HB2   13  12.745   9.725   7.985 -1.2642 -0.6457  2.1122
    2ALA    HB3   14  12.904   9.806   8.005  0.0711  0.2740 -1.2989
    2ALA      C   15  12.640   9.824   8.231  0.3219 -0.4863  0.5329
    2ALA      O   16  12.656   9.813   8.352 -0.0569  0.3500  0.7972
    3ALA      N   17  12.528   9.795   8.162  0.3708 -0.3859  0.6974
    3ALA      H   18  12.525   9.823   8.065 -0.2310 -3.1872 -0.2021
    3ALA     CA   19  12.422   9.711   8.220 -0.2491  0.2127  0.9196
    3ALA     HA   20  12.353   9.770   8.279 -1.2103 -1.6611  1.7766
    3ALA     CB   21  12.347   9.656   8.097 -0.5572  0.4204  0.6758
    3ALA    HB1   22  12.410   9.654   8.008  0.1499 -0.5360  1.1833
    3ALA    HB2   23  12.309   9.554   8.108  1.5405 -0.6583 -1.3424
    3ALA    HB3   24  12.263   9.720   8.068  0.0834  0.2493 -1.8249
    3ALA      C   25  12.469   9.596   8.310 -0.2025 -0.1231  0.1790
    3ALA      O   26  12.521   9.499   8.255  0.0498  0.0939  1.3888
    4NME      N   27  12.453   9.611   8.440 -0.1269  0.2767  0.0412
    4NME      H   28  12.412   9.697   8.473  1.9602  1.0253  0.8933
    4NME    CH3   29  12.481   9.523   8.547  0.7837  0.1056  0.0669
    4NME   HH31   30  12.586   9.521   8.574  1.1835  2.0936 -1.1875
    4NME   HH32   31  12.417   9.554   8.629 -1.3517 -0.5275 -1.2793
    4NME   HH33   32  12.436   9.428   8.517 -1.1204  1.1321 -0.4804
  20.99041  20.99041  20.99041
