Protein
   42
    1ACE   HH31    1  15.497   1.012   4.197 -1.1810  0.9602 -3.5089
    1ACE    CH3    2  15.570   1.093   4.200 -0.2538  0.1830 -0.0132
    1ACE   HH32    3  15.502   1.178   4.201 -0.9491 -0.2209 -2.8285
    1ACE   HH33    4  15.608   1.099   4.098 -0.7405 -0.3306 -0.2290
    1ACE      C    5  15.668   1.077   4.305  0.0241 -0.0479 -0.3624
    1ACE      O    6  15.657   0.995   4.389  0.4309 -0.2185 -0.1831
    2ALA      N    7  15.776   1.157   4.300  0.5990  0.6193  0.4178
    2ALA      H    8  15.782   1.230   4.230  2.4163  1.0358  0.9540
    2ALA     CA    9  15.898   1.137   4.382  0.4371  0.8064  0.4688
    2ALA     HA   10  15.944   1.040   4.363  0.4250  0.6797  1.0823
    2ALA     CB   11  16.007   1.248   4.343  0.4376  0.0621 -0.4392
    2ALA    HB1   12  16.038   1.238   4.239  1.3012 -1.9029 -0.0244
    2ALA    HB2   13  15.980   1.349   4.376  1.2102 -0.9274  3.7113
    2ALA    HB3   14  16.100   1.221   4.395 -0.6917  2.2665  3.0996
    2ALA      C   15  15.860   1.141   4.528  0.2704  0.5711 -0.3535
    2ALA      O   16  15.824   1.248   4.577  0.1079  0.5857  0.7071
    3ALA      N   17  15.875   1.043   4.616 -0.3469  0.3964 -0.3262
    3ALA      H   18  15.857   1.071   4.712 -0.3045  1.5484 -0.6454
    3ALA     CA   19  15.944   0.917   4.596  0.2902 -0.1532  0.1357
    3ALA     HA   20  15.941   0.888   4.491 -1.4088 -1.7142  0.5555
    3ALA     CB   21  16.088   0.934   4.633 -0.0177  0.2362 -0.1484
    3ALA    HB1   22  16.083   0.971   4.736  1.6568 -1.7292  0.7093
    3ALA    HB2   23  16.145   0.841   4.624  0.7161  0.7605 -1.1476
    3ALA    HB3   24  16.130   1.016   4.575  0.9000 -0.4495 -0.4831
    3ALA      C   25  15.870   0.796   4.657  0.1990  0.0019 -0.3491
    3ALA      O   26  15.935   0.712   4.722  1.2127 -0.4036 -0.0285
    4ALA      N   27  15.742   0.787   4.619  0.2658  0.2546 -0.2542
    4ALA      H   28  15.713   0.857   4.553  0.6168 -1.0911 -1.9168
    4ALA     CA   29  15.639   0.684   4.657  0.1045 -0.5157 -0.1716
    4ALA     HA   30  15.541   0.707   4.615  0.7474 -0.9730 -1.9801
    4ALA     CB   31  15.673   0.552   4.583 -0.2624  0.5897  0.1614
    4ALA    HB1   32  15.694   0.561   4.476  1.5222  0.0310  0.4212
    4ALA    HB2   33  15.763   0.506   4.625  0.2844  0.0896 -1.4523
    4ALA    HB3   34  15.594   0.478   4.594 -1.8832  1.8746 -1.9670
    4ALA      C   35  15.626   0.640   4.807 -0.2733 -0.4194  0.2470
    4ALA      O   36  15.515   0.611   4.836  0.0232  0.2949  0.1291
    5NME      N   37  15.729   0.633   4.889 -0.0113 -0.3992  0.1418
    5NME      H   38  15.819   0.644   4.845 -0.3356  0.4138 -0.3550
    5NME    CH3   39  15.709   0.610   5.030  0.2134 -0.2967 -0.6108
    5NME   HH31   40  15.798   0.563   5.071  0.5779 -0.3324 -1.4211
    5NME   HH32   41  15.695   0.705   5.082 -1.4769 -0.5175 -0.5782
    5NME   HH33   42  15.614   0.559   5.048  0.2959 -1.3600 -2.9020
  20.91516  20.91516  20.91516
