Protein
   32
    1ACE   HH31    1  13.794  12.918   8.168 -1.0720  0.4469 -0.2242
    1ACE    CH3    2  13.822  12.817   8.138  0.2085  0.5162  0.6579
    1ACE   HH32    3  13.730  12.760   8.130 -0.0662  0.9318  0.7673
    1ACE   HH33    4  13.885  12.766   8.211  0.5508  0.9849  0.7072
    1ACE      C    5  13.886  12.819   8.000 -0.3825  0.1399  0.1745
    1ACE      O    6  13.818  12.795   7.899  0.1322 -0.2817  0.2156
    2ALA      N    7  14.017  12.847   7.991  0.6513  0.1993 -0.1562
    2ALA      H    8  14.063  12.879   8.075 -1.4693  1.6617  0.5494
    2ALA     CA    9  14.089  12.868   7.867  0.6160  0.1356 -0.2836
    2ALA     HA   10  14.051  12.812   7.781 -1.9096  1.0127  0.1830
    2ALA     CB   11  14.093  13.020   7.840 -0.3760 -0.2063 -0.0022
    2ALA    HB1   12  13.990  13.048   7.823  0.3453  2.7192 -0.0184
    2ALA    HB2   13  14.135  13.071   7.926  2.0016 -1.1188 -0.5356
    2ALA    HB3   14  14.148  13.040   7.748 -0.7482  0.7100 -0.0325
    2ALA      C   15  14.234  12.817   7.881  0.1009 -0.3267  0.4444
    2ALA      O   16  14.279  12.768   7.988  0.4533  0.1189  1.1478
    3ALA      N   17  14.310  12.819   7.769 -0.3804  0.2415  0.4354
    3ALA      H   18  14.275  12.851   7.681 -0.1953 -1.0021 -0.1120
    3ALA     CA   19  14.447  12.759   7.763  0.4777 -0.0210  0.1217
    3ALA     HA   20  14.472  12.722   7.862  0.6758  0.9431  0.4361
    3ALA     CB   21  14.453  12.647   7.659  0.4713  0.4569  0.4933
    3ALA    HB1   22  14.557  12.624   7.637  0.4868 -0.8953  1.7242
    3ALA    HB2   23  14.395  12.558   7.684  2.6353 -1.4877 -1.0493
    3ALA    HB3   24  14.414  12.690   7.568 -1.1844 -0.3355  0.7884
    3ALA      C   25  14.556  12.864   7.730  0.6113 -0.0044 -0.5261
    3ALA      O   26  14.522  12.951   7.654 -0.2359 -0.4415  0.1712
    4NME      N   27  14.676  12.836   7.780 -0.0947 -0.3464 -0.3979
    4NME      H   28  14.681  12.761   7.847 -0.6027  2.2783  2.8448
    4NME    CH3   29  14.795  12.912   7.758  0.7639  0.1568  0.4438
    4NME   HH31   30  14.879  12.844   7.742 -0.6433 -1.4380 -0.6409
    4NME   HH32   31  14.782  12.974   7.669 -0.6422 -0.1770  0.3893
    4NME   HH33   32  14.809  12.974   7.846  1.5792  0.6286 -0.0044
  20.99041  20.99041  20.99041
