Protein
   22
    1ACE   HH31    1   8.021   7.259   2.854  1.2560  0.2229  2.9857
    1ACE    CH3    2   7.984   7.157   2.860  0.0349  0.3648 -0.2863
    1ACE   HH32    3   7.924   7.131   2.773  2.1396  0.2669 -1.7955
    1ACE   HH33    4   7.907   7.164   2.937 -1.1794  1.9935 -1.5663
    1ACE      C    5   8.095   7.059   2.908  1.0514 -0.8866 -0.2341
    1ACE      O    6   8.119   6.966   2.838 -0.4420  0.4254 -0.1987
    2ALA      N    7   8.156   7.091   3.028  0.2815  0.3866  0.0119
    2ALA      H    8   8.126   7.177   3.073  0.0457  0.2982  0.0248
    2ALA     CA    9   8.250   7.010   3.106 -0.3872 -0.8127  0.0764
    2ALA     HA   10   8.332   7.001   3.035  0.1031  1.5602  0.2887
    2ALA     CB   11   8.297   7.092   3.232  0.2657  1.1806  0.4474
    2ALA    HB1   12   8.368   7.042   3.297  2.1885  0.9239 -1.7185
    2ALA    HB2   13   8.354   7.180   3.203  1.6313  1.5345  3.8370
    2ALA    HB3   14   8.215   7.126   3.295  2.0403  4.7415  1.0675
    2ALA      C   15   8.211   6.865   3.146 -0.1879 -0.8806 -0.0511
    2ALA      O   16   8.255   6.815   3.246 -0.1856  1.0868  0.0377
    3NME      N   17   8.126   6.804   3.058  0.0439 -0.5761 -0.2011
    3NME      H   18   8.116   6.846   2.967  1.0029  1.6700  0.6571
    3NME    CH3   19   8.082   6.667   3.071  0.1790  0.1187 -0.2185
    3NME   HH31   20   7.973   6.665   3.063 -0.0103 -0.5993  1.8880
    3NME   HH32   21   8.125   6.605   2.992  1.6149  0.1837  0.4851
    3NME   HH33   22   8.119   6.625   3.164  0.2182 -1.7257 -1.0279
  10.72160  10.72160  10.72160
