Protein
   42
    1ACE   HH31    1  11.781  10.695  14.172 -1.7965 -0.6922  1.6017
    1ACE    CH3    2  11.784  10.610  14.104 -0.1512  0.5048  0.1021
    1ACE   HH32    3  11.815  10.512  14.141  0.9313  2.0852  3.8413
    1ACE   HH33    4  11.842  10.629  14.013 -0.7513  0.3119 -0.3287
    1ACE      C    5  11.639  10.583  14.073  0.6677 -0.3564  0.8465
    1ACE      O    6  11.604  10.470  14.096 -0.2126  0.2883  0.6817
    2ALA      N    7  11.567  10.685  14.025 -0.0319  0.2507  0.1955
    2ALA      H    8  11.612  10.775  14.032  0.7261 -0.1380  0.4374
    2ALA     CA    9  11.429  10.685  13.973  0.0328  0.5844  0.1786
    2ALA     HA   10  11.352  10.667  14.048  0.0377 -0.4943 -0.0561
    2ALA     CB   11  11.407  10.825  13.909  0.1865 -0.0311 -0.3397
    2ALA    HB1   12  11.350  10.815  13.816 -0.1509 -2.1484  0.0256
    2ALA    HB2   13  11.363  10.890  13.985  3.0445 -0.4520  1.8281
    2ALA    HB3   14  11.500  10.863  13.867  0.3125  0.4237  0.3344
    2ALA      C   15  11.405  10.581  13.859 -0.4473  0.6436 -1.0969
    2ALA      O   16  11.501  10.524  13.809  0.5592 -0.3915 -0.0903
    3ALA      N   17  11.284  10.559  13.806  0.2734 -0.2695  0.3324
    3ALA      H   18  11.283  10.497  13.726  2.3344 -0.4107  0.3757
    3ALA     CA   19  11.152  10.588  13.865 -0.3971  0.3462  0.5302
    3ALA     HA   20  11.139  10.696  13.874  0.9280  0.6897 -1.0212
    3ALA     CB   21  11.043  10.527  13.766  0.1438 -0.1472  0.1123
    3ALA    HB1   22  10.949  10.578  13.790  1.4897  3.2503 -1.1559
    3ALA    HB2   23  11.066  10.549  13.662 -1.4884  0.2849 -0.1887
    3ALA    HB3   24  11.037  10.419  13.773  1.0666 -0.2999 -1.1206
    3ALA      C   25  11.136  10.521  14.002 -0.4227  1.1426  0.4601
    3ALA      O   26  11.083  10.578  14.096 -0.4605 -0.0774  0.3730
    4ALA      N   27  11.193  10.404  14.026  0.1157 -1.2663 -0.2666
    4ALA      H   28  11.239  10.364  13.945 -0.8271  0.8676 -1.9583
    4ALA     CA   29  11.170  10.323  14.143  0.1433 -0.6878 -0.1777
    4ALA     HA   30  11.165  10.389  14.229 -0.9100 -0.4781 -0.3887
    4ALA     CB   31  11.040  10.251  14.133  0.3735 -0.0520  0.6623
    4ALA    HB1   32  11.012  10.191  14.219 -0.8795 -1.7843 -0.8960
    4ALA    HB2   33  10.960  10.325  14.131  0.1104 -0.3458  0.0132
    4ALA    HB3   34  11.030  10.181  14.050 -0.1264 -0.5324  1.1321
    4ALA      C   35  11.288  10.227  14.159 -0.7697  0.6115 -0.1268
    4ALA      O   36  11.278  10.109  14.116 -0.2225  0.0050 -0.2439
    5NME      N   37  11.393  10.274  14.225 -0.0167 -0.5674  0.1435
    5NME      H   38  11.383  10.369  14.257  0.1507 -0.2303 -0.7827
    5NME    CH3   39  11.518  10.205  14.253 -0.4859  0.2594  0.3434
    5NME   HH31   40  11.592  10.246  14.185  1.1165 -0.5907  1.5140
    5NME   HH32   41  11.558  10.218  14.354 -1.9152 -1.9501  1.2679
    5NME   HH33   42  11.501  10.101  14.227 -4.3847  0.8341  0.0026
  20.91516  20.91516  20.91516
