Protein
   42
    1ACE   HH31    1   9.709  11.597  15.884 -0.3678 -1.8721 -0.2161
    1ACE    CH3    2   9.726  11.631  15.782  0.3689  0.3235  0.5708
    1ACE   HH32    3   9.694  11.735  15.771  0.4596  0.4499  1.3764
    1ACE   HH33    4   9.673  11.576  15.705 -0.4325  0.8612  0.7202
    1ACE      C    5   9.878  11.615  15.758  0.6165 -0.3261 -0.0135
    1ACE      O    6   9.914  11.597  15.647  0.2720 -0.1812  0.1521
    2ALA      N    7   9.957  11.635  15.869 -0.0173 -0.3834  0.7290
    2ALA      H    8   9.912  11.663  15.955 -0.7097  2.6461 -0.5029
    2ALA     CA    9  10.099  11.619  15.888 -0.4789 -0.9837 -0.3228
    2ALA     HA   10  10.128  11.701  15.954 -1.5536 -1.3378  0.6237
    2ALA     CB   11  10.123  11.484  15.970  0.1610 -0.1576  0.2698
    2ALA    HB1   12  10.083  11.488  16.071 -0.2203 -0.6884  0.1375
    2ALA    HB2   13  10.101  11.393  15.914 -0.9942  2.0895 -3.2266
    2ALA    HB3   14  10.231  11.476  15.985  0.3440  1.3036 -0.1016
    2ALA      C   15  10.193  11.627  15.763  0.1486  0.1914 -0.3568
    2ALA      O   16  10.289  11.550  15.755  0.1358  0.2034  0.3186
    3ALA      N   17  10.156  11.719  15.673 -0.3255  0.1348 -0.1228
    3ALA      H   18  10.070  11.767  15.691  0.3360  0.6387  1.8853
    3ALA     CA   19  10.228  11.753  15.551 -0.1350 -0.4935 -0.0111
    3ALA     HA   20  10.195  11.855  15.529  0.5969 -0.3840 -0.6483
    3ALA     CB   21  10.380  11.767  15.572  0.1028  0.5856 -0.0034
    3ALA    HB1   22  10.424  11.824  15.490 -1.7103  0.9767 -0.7482
    3ALA    HB2   23  10.401  11.804  15.672 -2.8653  1.0783  0.5588
    3ALA    HB3   24  10.430  11.671  15.559 -0.0657  0.5550 -0.5304
    3ALA      C   25  10.187  11.670  15.430  0.3060  0.1731  0.4447
    3ALA      O   26  10.262  11.660  15.330 -0.0761  0.2208  0.9472
    4ALA      N   27  10.072  11.595  15.427 -0.5001 -0.7254  0.4709
    4ALA      H   28  10.011  11.595  15.508  2.2859  2.7728  2.8973
    4ALA     CA   29  10.008  11.554  15.301 -0.4160 -0.4940  0.2146
    4ALA     HA   30  10.055  11.463  15.262  1.2615  0.9888 -1.5137
    4ALA     CB   31   9.856  11.531  15.329  0.2352  0.3278  0.2966
    4ALA    HB1   32   9.806  11.510  15.235  0.2776 -0.5141  0.4470
    4ALA    HB2   33   9.835  11.446  15.394 -0.6910  1.1913  1.1599
    4ALA    HB3   34   9.803  11.620  15.364  2.2029  3.0488 -3.0591
    4ALA      C   35  10.020  11.652  15.185  0.9999  0.8978  1.0933
    4ALA      O   36   9.971  11.762  15.196  0.3596 -0.1538 -0.2371
    5NME      N   37  10.086  11.602  15.080 -0.3302 -0.0336  0.0638
    5NME      H   38  10.116  11.506  15.088 -3.4661 -1.0140  1.4786
    5NME    CH3   39  10.134  11.674  14.958 -0.3086 -0.2373  0.3749
    5NME   HH31   40  10.157  11.778  14.983  0.7521 -0.6929  1.3437
    5NME   HH32   41  10.228  11.630  14.923 -0.1266  0.0298  0.5271
    5NME   HH33   42  10.054  11.668  14.884  0.7268  2.9526 -1.2129
  20.91516  20.91516  20.91516
