Protein
   22
    1ACE   HH31    1   5.097   8.794   8.855 -3.0105  0.0560 -1.1478
    1ACE    CH3    2   5.121   8.745   8.760  0.5524 -0.0141 -0.3739
    1ACE   HH32    3   5.218   8.699   8.776  0.4114 -0.3153 -0.3690
    1ACE   HH33    4   5.123   8.808   8.671  2.5696 -0.9234 -1.0139
    1ACE      C    5   5.023   8.630   8.748  0.1387 -0.3131 -0.3287
    1ACE      O    6   4.958   8.590   8.848 -0.6168  0.8544 -0.2103
    2ALA      N    7   5.010   8.575   8.625  0.0682  0.0587 -0.0392
    2ALA      H    8   5.083   8.616   8.568 -0.6004 -0.4661 -1.3164
    2ALA     CA    9   4.950   8.444   8.587 -0.7109 -1.5095  0.3045
    2ALA     HA   10   4.979   8.434   8.482 -0.6851  0.3749  0.1016
    2ALA     CB   11   5.015   8.329   8.657 -0.1840  0.3335 -0.3865
    2ALA    HB1   12   5.123   8.333   8.638 -0.5793 -1.3495 -3.7190
    2ALA    HB2   13   5.000   8.338   8.765  1.3059 -0.8020 -0.0532
    2ALA    HB3   14   4.972   8.235   8.625 -2.1463  1.6243 -1.7549
    2ALA      C   15   4.794   8.444   8.587 -0.0658  0.0836 -0.0927
    2ALA      O   16   4.741   8.383   8.494  0.5191 -0.0070  0.4126
    3NME      N   17   4.732   8.508   8.687 -0.1494 -0.5171  0.1676
    3NME      H   18   4.793   8.550   8.756 -0.5392 -1.0012  0.8211
    3NME    CH3   19   4.593   8.530   8.699 -0.6240 -0.2383 -0.0361
    3NME   HH31   20   4.581   8.638   8.691  2.7099  0.1170 -2.9664
    3NME   HH32   21   4.541   8.467   8.627 -0.2413 -0.7081  0.0934
    3NME   HH33   22   4.554   8.498   8.795 -1.2318 -2.3259 -0.9241
  10.72160  10.72160  10.72160
