Protein
   32
    1ACE   HH31    1  15.330   7.819  10.295  0.4178 -0.1674 -0.2140
    1ACE    CH3    2  15.438   7.826  10.288  0.4044  0.2396 -0.0234
    1ACE   HH32    3  15.495   7.883  10.214  3.1030 -2.4650 -0.2328
    1ACE   HH33    4  15.483   7.727  10.298  0.1365 -0.3172 -3.2171
    1ACE      C    5  15.472   7.893  10.422  0.0110 -0.4672 -0.0341
    1ACE      O    6  15.386   7.884  10.511  0.1317 -0.1051 -0.1310
    2ALA      N    7  15.587   7.953  10.434  0.1865  0.0287 -0.5265
    2ALA      H    8  15.655   7.940  10.361  1.4230 -1.4602  0.8384
    2ALA     CA    9  15.636   8.037  10.548  0.3821 -0.1342 -0.2785
    2ALA     HA   10  15.559   8.079  10.614  0.3982  2.0123 -1.5360
    2ALA     CB   11  15.728   7.937  10.635 -0.0876 -0.2339  0.1395
    2ALA    HB1   12  15.764   7.993  10.721  0.1577  1.3857 -0.9815
    2ALA    HB2   13  15.667   7.854  10.673 -0.6643 -0.9865 -2.2635
    2ALA    HB3   14  15.818   7.907  10.582  0.2070  0.9594 -0.0493
    2ALA      C   15  15.711   8.155  10.478 -0.5560  0.5384 -0.5531
    2ALA      O   16  15.755   8.151  10.364 -0.0291  0.7832 -0.2288
    3ALA      N   17  15.726   8.264  10.551 -0.1643 -0.1755  0.8170
    3ALA      H   18  15.689   8.263  10.645 -1.6194  1.1206  0.3042
    3ALA     CA   19  15.786   8.384  10.506 -0.1622 -0.8067  0.1313
    3ALA     HA   20  15.874   8.350  10.452  0.8230  1.5673  0.1308
    3ALA     CB   21  15.688   8.453  10.404  0.2683  0.0591 -0.1760
    3ALA    HB1   22  15.606   8.484  10.470  0.4550 -1.8324  1.0110
    3ALA    HB2   23  15.738   8.546  10.375 -0.4969  0.4869 -0.1722
    3ALA    HB3   24  15.664   8.395  10.316 -0.4084 -0.0880  0.0977
    3ALA      C   25  15.838   8.474  10.620 -0.4201 -0.3274 -0.1709
    3ALA      O   26  15.775   8.483  10.729 -0.0566  0.3448  0.5654
    4NME      N   27  15.945   8.549  10.591  0.2999  0.4767 -0.9201
    4NME      H   28  15.968   8.546  10.493 -1.2173 -0.9348 -1.2703
    4NME    CH3   29  15.999   8.665  10.671  0.9404  0.4879  0.4842
    4NME   HH31   30  16.024   8.621  10.767 -1.7142 -1.7930  0.2960
    4NME   HH32   31  16.082   8.708  10.616  1.5982 -1.3117 -0.0152
    4NME   HH33   32  15.924   8.740  10.696  1.4712 -0.0660  4.2989
  20.99041  20.99041  20.99041
