Protein
   32
    1ACE   HH31    1   8.176   9.893  15.443 -0.7249  2.2534 -0.5776
    1ACE    CH3    2   8.241   9.899  15.356  0.0041 -0.0634 -0.2948
    1ACE   HH32    3   8.340   9.944  15.369 -0.4004  0.4403  1.2092
    1ACE   HH33    4   8.200   9.966  15.280  0.4841 -0.7368 -1.1640
    1ACE      C    5   8.258   9.756  15.301 -0.4079 -0.4164  0.0452
    1ACE      O    6   8.247   9.734  15.186 -0.4552  0.0264 -0.0145
    2ALA      N    7   8.292   9.662  15.393  0.5865  0.0570  1.3736
    2ALA      H    8   8.323   9.701  15.481 -0.7616 -0.9941  2.3454
    2ALA     CA    9   8.319   9.519  15.384  0.5294  0.1754 -0.1596
    2ALA     HA   10   8.393   9.501  15.463 -1.1840 -0.0338  1.4659
    2ALA     CB   11   8.192   9.444  15.432  0.0544  0.0374 -0.1850
    2ALA    HB1   12   8.101   9.487  15.389  0.8137  0.5054 -1.3806
    2ALA    HB2   13   8.195   9.341  15.400 -0.9686 -0.7084  1.8594
    2ALA    HB3   14   8.191   9.443  15.541 -1.2230 -1.0266 -0.1793
    2ALA      C   15   8.380   9.466  15.246 -0.3497 -0.1920 -0.8546
    2ALA      O   16   8.502   9.447  15.233 -0.6179  0.2128 -0.4255
    3ALA      N   17   8.284   9.430  15.155 -0.1554 -0.3847  0.2831
    3ALA      H   18   8.185   9.445  15.167 -0.1543 -0.5211  0.4559
    3ALA     CA   19   8.315   9.381  15.019  0.2064 -0.3141 -0.2838
    3ALA     HA   20   8.423   9.370  15.019  0.2139 -0.3476 -1.0768
    3ALA     CB   21   8.233   9.250  14.997 -0.2207  0.0030 -0.2737
    3ALA    HB1   22   8.264   9.174  15.069  2.6095 -1.4177 -2.7684
    3ALA    HB2   23   8.127   9.274  15.006 -0.1631  0.1898 -0.0570
    3ALA    HB3   24   8.249   9.206  14.899  2.1535  0.6977 -0.2618
    3ALA      C   25   8.281   9.483  14.907  0.5599  0.3815 -0.7492
    3ALA      O   26   8.280   9.442  14.792 -0.0516  0.1916  0.6244
    4NME      N   27   8.246   9.605  14.938  0.3844  0.3061 -0.6048
    4NME      H   28   8.230   9.644  15.030  0.2347  0.0661 -0.5273
    4NME    CH3   29   8.200   9.694  14.832  0.3936 -0.2387  0.6987
    4NME   HH31   30   8.278   9.702  14.757 -0.8342  1.4764 -0.4756
    4NME   HH32   31   8.106   9.663  14.785 -0.2102  1.0383  1.0298
    4NME   HH33   32   8.169   9.790  14.873 -2.5269 -0.3345 -1.0089
  20.99041  20.99041  20.99041
