Protein
   42
    1ACE   HH31    1   2.516  12.665  12.048  1.8349  0.3908 -1.7041
    1ACE    CH3    2   2.557  12.564  12.052  0.4979 -0.1488  0.2283
    1ACE   HH32    3   2.496  12.490  12.002  0.5637 -1.3794  1.9062
    1ACE   HH33    4   2.588  12.534  12.152  3.2831  2.8302  0.4630
    1ACE      C    5   2.687  12.586  11.972  0.5656  0.3009 -0.0695
    1ACE      O    6   2.696  12.654  11.870  0.4148  0.0605 -0.0803
    2ALA      N    7   2.798  12.518  12.016 -0.6028  0.0552 -0.3414
    2ALA      H    8   2.777  12.446  12.084 -1.5250  2.3552  1.9643
    2ALA     CA    9   2.938  12.534  11.972 -0.1022  0.3536  0.4680
    2ALA     HA   10   2.943  12.552  11.865  0.7699  1.6211  0.7042
    2ALA     CB   11   2.995  12.661  12.027  0.6118  0.1270 -0.4543
    2ALA    HB1   12   2.996  12.657  12.136  1.2546  1.3545 -0.3990
    2ALA    HB2   13   3.091  12.677  11.978  0.5995  1.9658  0.0672
    2ALA    HB3   14   2.935  12.750  12.009 -0.9392  0.0772  3.4348
    2ALA      C   15   3.018  12.409  12.015 -0.3593 -0.0892  0.1080
    2ALA      O   16   2.980  12.333  12.103  0.0893 -0.2324  0.7131
    3ALA      N   17   3.135  12.379  11.954  0.2536  0.2150 -0.3777
    3ALA      H   18   3.183  12.296  11.985  2.0325  1.2700 -0.1523
    3ALA     CA   19   3.186  12.427  11.833  0.4088 -0.3379  0.5444
    3ALA     HA   20   3.196  12.535  11.838 -0.1431 -0.2026 -0.8043
    3ALA     CB   21   3.338  12.387  11.821 -0.1023 -0.9008 -0.9325
    3ALA    HB1   22   3.351  12.279  11.824 -0.6782 -0.9822 -1.4233
    3ALA    HB2   23   3.378  12.418  11.724  1.3675 -0.6818 -0.2916
    3ALA    HB3   24   3.395  12.445  11.894  0.6112  2.2522 -3.7350
    3ALA      C   25   3.102  12.404  11.705 -0.4060 -0.6903 -0.4766
    3ALA      O   26   3.061  12.292  11.684 -0.5978 -0.4268  0.7357
    4ALA      N   27   3.074  12.513  11.631  0.4303  0.3368 -0.8895
    4ALA      H   28   3.100  12.604  11.665 -1.4252  0.1127  1.3932
    4ALA     CA   29   2.987  12.515  11.516  0.7989  0.0232  0.9891
    4ALA     HA   30   3.023  12.436  11.450  0.0506  0.0528  0.5177
    4ALA     CB   31   2.849  12.475  11.561  0.8947  0.1249  0.2479
    4ALA    HB1   32   2.789  12.477  11.469 -0.5287 -0.2182  1.1368
    4ALA    HB2   33   2.841  12.369  11.581 -3.6838  0.4124  1.0538
    4ALA    HB3   34   2.802  12.531  11.642 -2.3534 -4.5251  2.0022
    4ALA      C   35   2.987  12.656  11.455 -0.6058  0.6340  0.0966
    4ALA      O   36   3.060  12.745  11.504 -0.3475  0.1594  0.5249
    5NME      N   37   2.908  12.677  11.347  0.2654  0.2919 -0.9118
    5NME      H   38   2.863  12.598  11.303  3.2202 -1.1971 -1.5590
    5NME    CH3   39   2.904  12.811  11.283 -0.8375 -0.5870  0.0901
    5NME   HH31   40   2.876  12.797  11.178 -1.4561 -1.5039  0.3591
    5NME   HH32   41   2.829  12.872  11.332 -0.3567  1.2637 -1.3979
    5NME   HH33   42   2.997  12.868  11.284 -1.4898  0.5924 -1.7086
  20.91516  20.91516  20.91516
