Protein
   42
    1ACE   HH31    1   6.756   9.492  17.523  0.2699 -1.2028  0.0165
    1ACE    CH3    2   6.834   9.567  17.515 -0.6055 -0.3202 -0.4229
    1ACE   HH32    3   6.802   9.667  17.484  2.0383  0.2003 -1.7390
    1ACE   HH33    4   6.897   9.529  17.435  0.2933 -1.6111  0.8340
    1ACE      C    5   6.904   9.586  17.651  0.5302  0.2513 -0.3965
    1ACE      O    6   7.030   9.585  17.650  0.2006 -0.0834  0.2848
    2ALA      N    7   6.832   9.613  17.760 -0.3573  0.1908 -0.2534
    2ALA      H    8   6.733   9.627  17.744 -0.3084  2.0930  0.8218
    2ALA     CA    9   6.895   9.628  17.886  0.3547 -0.3887 -0.0625
    2ALA     HA   10   6.960   9.716  17.892  0.6853 -0.6765  0.8047
    2ALA     CB   11   6.788   9.635  17.997  0.1530  0.2130 -0.1613
    2ALA    HB1   12   6.743   9.734  18.007 -0.3600 -0.1027  0.8277
    2ALA    HB2   13   6.714   9.556  17.987 -0.0987  0.3268  0.7126
    2ALA    HB3   14   6.839   9.616  18.091  0.7752  0.9086 -0.3418
    2ALA      C   15   6.995   9.506  17.918 -0.5197 -0.8237 -0.5142
    2ALA      O   16   6.958   9.389  17.936 -0.1020  0.1954 -1.0143
    3ALA      N   17   7.128   9.530  17.930 -0.4041  0.4314 -0.2845
    3ALA      H   18   7.180   9.448  17.956  1.0065  1.4569  0.2250
    3ALA     CA   19   7.208   9.654  17.920  0.2104 -0.2564 -0.2039
    3ALA     HA   20   7.148   9.736  17.881  1.5153  0.0058 -1.7643
    3ALA     CB   21   7.246   9.705  18.058 -0.3802 -0.5005  0.1348
    3ALA    HB1   22   7.311   9.638  18.114  1.1283  1.6813  1.1160
    3ALA    HB2   23   7.290   9.804  18.055 -1.7011  0.0932 -0.5452
    3ALA    HB3   24   7.151   9.715  18.111 -0.3680 -0.2402  0.1082
    3ALA      C   25   7.320   9.648  17.816  0.8530 -0.2179  0.2482
    3ALA      O   26   7.410   9.730  17.806 -0.1730 -0.3908 -0.6258
    4ALA      N   27   7.317   9.550  17.726  0.2426  0.2751 -1.0492
    4ALA      H   28   7.243   9.482  17.736  2.1183 -1.4648  3.3645
    4ALA     CA   29   7.394   9.541  17.604  0.3350  0.2918 -1.0331
    4ALA     HA   30   7.497   9.544  17.638  0.2356  1.1493 -0.8003
    4ALA     CB   31   7.356   9.407  17.546  0.9468 -1.4232  0.7404
    4ALA    HB1   32   7.250   9.412  17.521  1.2902  2.6183 -0.7933
    4ALA    HB2   33   7.409   9.407  17.450  0.2539  0.4678  0.3061
    4ALA    HB3   34   7.376   9.311  17.593 -1.8122 -1.7546  1.3632
    4ALA      C   35   7.371   9.658  17.506 -0.0533  0.2150 -0.4555
    4ALA      O   36   7.462   9.694  17.434 -0.3059  0.1742  0.1061
    5NME      N   37   7.249   9.713  17.499 -0.4695  0.3673  0.4653
    5NME      H   38   7.168   9.677  17.548 -2.3569  0.3927 -2.3433
    5NME    CH3   39   7.208   9.830  17.420 -0.5163 -0.1543  0.1634
    5NME   HH31   40   7.164   9.903  17.488 -0.2575  0.0995  0.0656
    5NME   HH32   41   7.297   9.881  17.383 -0.8332  0.3898  0.1270
    5NME   HH33   42   7.161   9.802  17.326  1.4945  3.0192 -2.0385
  20.91516  20.91516  20.91516
