Protein
   42
    1ACE   HH31    1  14.822  15.974  10.581  2.4985 -1.1379  1.1469
    1ACE    CH3    2  14.782  16.040  10.658 -0.2573 -0.5530 -0.6814
    1ACE   HH32    3  14.848  16.127  10.663  1.2055 -1.6890  2.6613
    1ACE   HH33    4  14.775  15.997  10.758  0.1132  3.3868  1.1917
    1ACE      C    5  14.638  16.090  10.629 -0.3838 -0.4310 -0.3228
    1ACE      O    6  14.566  16.033  10.547 -0.2026 -0.4368  0.2306
    2ALA      N    7  14.592  16.192  10.707  0.1291 -0.6226  0.5808
    2ALA      H    8  14.661  16.234  10.768  0.7664 -3.2657  1.8303
    2ALA     CA    9  14.455  16.241  10.712  1.1846  0.6547  0.0072
    2ALA     HA   10  14.402  16.199  10.626  0.5764  1.4842 -0.0325
    2ALA     CB   11  14.387  16.174  10.832  0.5873 -0.0723 -0.2389
    2ALA    HB1   12  14.425  16.223  10.922 -0.6655  3.6585 -1.5248
    2ALA    HB2   13  14.281  16.192  10.814  0.4775 -1.7698 -1.3959
    2ALA    HB3   14  14.417  16.070  10.821  2.6290  0.2834  1.3504
    2ALA      C   15  14.445  16.393  10.715  0.1765 -0.0186  0.6419
    2ALA      O   16  14.542  16.451  10.762 -0.0891 -0.3598 -0.4952
    3ALA      N   17  14.338  16.467  10.688  0.3386  0.6766 -0.1942
    3ALA      H   18  14.344  16.562  10.724  3.6175  0.3560  0.4332
    3ALA     CA   19  14.233  16.452  10.584 -0.4064  0.1915 -0.0483
    3ALA     HA   20  14.145  16.413  10.635  0.2856 -2.1954 -0.5429
    3ALA     CB   21  14.210  16.592  10.531  0.2063 -0.1958 -0.2410
    3ALA    HB1   22  14.297  16.642  10.488 -0.0434  1.5875  1.2401
    3ALA    HB2   23  14.146  16.591  10.442  1.5211  2.0313 -1.3229
    3ALA    HB3   24  14.171  16.659  10.608  0.0274  0.6138 -1.0160
    3ALA      C   25  14.262  16.356  10.468  0.0168 -0.6079  0.0027
    3ALA      O   26  14.171  16.285  10.423 -0.0029 -0.0126 -0.5189
    4ALA      N   27  14.387  16.353  10.421  0.0093 -0.0557  0.0020
    4ALA      H   28  14.450  16.430  10.437  0.2830 -0.1466 -0.6105
    4ALA     CA   29  14.432  16.256  10.321  0.0740  0.7031 -0.0023
    4ALA     HA   30  14.396  16.157  10.348  2.7523 -0.2277  0.5345
    4ALA     CB   31  14.379  16.294  10.181 -0.3059  0.0512  0.1127
    4ALA    HB1   32  14.446  16.261  10.102 -0.2938 -4.7194  1.8285
    4ALA    HB2   33  14.275  16.263  10.173 -0.6477  1.3056 -0.6459
    4ALA    HB3   34  14.376  16.403  10.176  2.1192  0.1903  0.5587
    4ALA      C   35  14.589  16.257  10.326  0.0852 -0.3327 -0.2068
    4ALA      O   36  14.646  16.352  10.365  0.3752  0.0505 -0.0422
    5NME      N   37  14.650  16.145  10.302 -0.7056  0.3604 -0.4274
    5NME      H   38  14.586  16.072  10.275  0.2635 -0.7575  0.2589
    5NME    CH3   39  14.790  16.111  10.303 -0.5914 -0.1297  0.3927
    5NME   HH31   40  14.800  16.004  10.290  4.0052  0.1273  0.2492
    5NME   HH32   41  14.850  16.154  10.221  0.9644 -3.6841 -0.5103
    5NME   HH33   42  14.842  16.139  10.395  2.7664 -2.5134 -0.5753
  20.91516  20.91516  20.91516
