Protein
   32
    1ACE   HH31    1  15.084   5.471   9.992 -2.0805 -0.7429 -0.7711
    1ACE    CH3    2  15.032   5.519  10.075  0.1841 -0.5012  0.6132
    1ACE   HH32    3  15.003   5.614  10.031 -2.8975 -1.9105 -0.6997
    1ACE   HH33    4  15.092   5.543  10.162 -1.7118  1.2918  1.4978
    1ACE      C    5  14.917   5.428  10.100  0.5857 -0.0041  0.1813
    1ACE      O    6  14.904   5.314  10.051  0.5728 -0.2122 -0.3388
    2ALA      N    7  14.816   5.486  10.157 -0.2404 -0.1364 -0.4113
    2ALA      H    8  14.828   5.584  10.176  1.7785 -0.0038 -2.0789
    2ALA     CA    9  14.699   5.423  10.217  0.7350  0.3721  0.3405
    2ALA     HA   10  14.644   5.504  10.265  2.1341  0.3986  2.0442
    2ALA     CB   11  14.603   5.392  10.103 -0.2647  0.0093  0.0243
    2ALA    HB1   12  14.594   5.471  10.029 -2.6931  0.1500  0.3978
    2ALA    HB2   13  14.636   5.303  10.050  0.2820  0.7985 -1.0019
    2ALA    HB3   14  14.500   5.381  10.135 -0.7333 -0.6760 -1.6323
    2ALA      C   15  14.708   5.309  10.321 -0.2724 -0.0905 -0.3141
    2ALA      O   16  14.806   5.239  10.337 -0.1358 -0.1977 -0.1367
    3ALA      N   17  14.600   5.290  10.399  0.5075 -0.4558 -0.1939
    3ALA      H   18  14.517   5.344  10.381  0.6197 -0.6659 -1.4041
    3ALA     CA   19  14.589   5.186  10.498  0.3067  0.2870  0.4690
    3ALA     HA   20  14.685   5.173  10.549  0.4377  1.6978  0.6307
    3ALA     CB   21  14.481   5.234  10.603 -0.2411 -0.3339 -0.5486
    3ALA    HB1   22  14.388   5.274  10.562 -1.2536 -1.7437  0.2729
    3ALA    HB2   23  14.459   5.148  10.668  0.8068 -1.0663 -1.1342
    3ALA    HB3   24  14.514   5.311  10.672 -1.3376 -0.6693  0.3898
    3ALA      C   25  14.560   5.050  10.445  0.0981  0.3477  0.1940
    3ALA      O   26  14.488   5.041  10.343  0.4479 -0.3501 -0.8015
    4NME      N   27  14.602   4.946  10.513 -0.0579  0.4661 -0.0646
    4NME      H   28  14.675   4.960  10.581 -0.8753  3.0301  0.3973
    4NME    CH3   29  14.562   4.809  10.504  0.3363  0.6821  0.0464
    4NME   HH31   30  14.633   4.759  10.439  0.4599 -0.4057  0.9934
    4NME   HH32   31  14.570   4.762  10.602  0.7275  0.0010 -0.3099
    4NME   HH33   32  14.459   4.790  10.474  0.7061 -2.7428  0.4816
  20.99041  20.99041  20.99041
