Title
  129
    1AIB    CAY    1  21.517  20.069  21.279 -0.3920  0.3232 -0.6758
    1AIB    HY1    2  21.595  20.021  21.215  0.6614  1.3825 -0.2267
    1AIB    HY2    3  21.432  20.086  21.210 -1.0306 -0.4662 -0.0880
    1AIB    HY3    4  21.484  19.993  21.353 -0.9016 -0.4427 -1.6652
    1AIB     CY    5  21.548  20.207  21.330  0.7996  0.3443 -0.1711
    1AIB     OY    6  21.624  20.270  21.268 -0.8104 -0.2751 -0.2250
    1AIB      N    7  21.491  20.240  21.441 -0.0143  0.7094 -0.0638
    1AIB     HN    8  21.427  20.168  21.468  0.2872 -0.8468 -2.9959
    1AIB     CA    9  21.505  20.368  21.518 -0.5920  0.6405  0.7745
    1AIB    CB1   10  21.639  20.365  21.597 -0.7862 -0.0418 -0.3613
    1AIB   HB11   11  21.628  20.424  21.690 -1.6585  0.0888 -0.5369
    1AIB   HB12   12  21.717  20.403  21.528 -2.0428  2.9781 -0.2940
    1AIB   HB13   13  21.661  20.260  21.627 -0.5915 -0.3993 -1.6818
    1AIB    CB2   14  21.393  20.353  21.619 -0.2590  0.3015 -0.1335
    1AIB   HB21   15  21.427  20.273  21.688  1.8675  1.0448 -0.2762
    1AIB   HB22   16  21.288  20.353  21.583 -0.3319 -0.7643  0.0254
    1AIB   HB23   17  21.411  20.440  21.687 -1.7878  2.1230 -1.9258
    1AIB      C   18  21.484  20.493  21.432 -0.1090 -0.5139  0.2402
    1AIB      O   19  21.411  20.495  21.332 -0.4370 -0.3273  0.3190
    2AIB      N   20  21.554  20.605  21.459  0.0790 -0.2722  0.2639
    2AIB     HN   21  21.612  20.611  21.540  0.6201  1.3054 -0.2076
    2AIB     CA   22  21.546  20.737  21.396 -0.6922  0.1933  0.2078
    2AIB    CB1   23  21.647  20.839  21.454 -0.3519  0.3422 -0.3937
    2AIB   HB11   24  21.630  20.843  21.564 -1.2406 -1.7138 -0.3997
    2AIB   HB12   25  21.643  20.944  21.418 -2.5039  0.9147  1.3002
    2AIB   HB13   26  21.747  20.801  21.427 -1.0562 -2.2335  0.3329
    2AIB    CB2   27  21.410  20.789  21.435 -0.5106  0.7329  0.3445
    2AIB   HB21   28  21.394  20.754  21.539  3.4299  0.3510  0.9773
    2AIB   HB22   29  21.331  20.737  21.376  0.6415 -0.2214 -0.4076
    2AIB   HB23   30  21.386  20.896  21.416 -0.6974  0.4179 -1.3824
    2AIB      C   31  21.549  20.735  21.237  0.0190 -1.2845  0.1142
    2AIB      O   32  21.470  20.804  21.176  0.0503  0.3462  0.2867
    3AIB      N   33  21.643  20.659  21.179  0.5536 -0.4723  0.5794
    3AIB     HN   34  21.700  20.600  21.236  0.4681 -0.4050  0.7332
    3AIB     CA   35  21.663  20.658  21.038 -0.1494 -0.0610 -0.5814
    3AIB    CB1   36  21.777  20.567  21.012 -0.1560  0.6344 -0.0012
    3AIB   HB11   37  21.750  20.461  21.034  0.6938  0.4710  0.2586
    3AIB   HB12   38  21.857  20.593  21.083 -0.9673  0.8369  0.8598
    3AIB   HB13   39  21.808  20.580  20.906 -0.4916 -1.7881 -0.4501
    3AIB    CB2   40  21.710  20.801  20.999 -0.0644  0.2695 -0.3848
    3AIB   HB21   41  21.779  20.833  21.079 -1.3617 -0.0629  0.9172
    3AIB   HB22   42  21.627  20.874  20.990 -0.2615 -0.0012 -0.8099
    3AIB   HB23   43  21.769  20.795  20.905  0.1213  1.0716 -0.3238
    3AIB      C   44  21.536  20.605  20.956  1.0678 -0.2333  0.3164
    3AIB      O   45  21.498  20.656  20.849 -0.3578 -0.0204 -0.3846
    4AIB      N   46  21.470  20.499  21.010  0.1006 -0.2598 -0.5297
    4AIB     HN   47  21.506  20.465  21.096 -2.3088  2.2985  1.6968
    4AIB     CA   48  21.346  20.437  20.970 -0.5635 -0.1381 -0.4040
    4AIB    CB1   49  21.295  20.350  21.088 -0.1789  0.8406 -0.0147
    4AIB   HB11   50  21.347  20.253  21.106 -2.1596 -0.6836 -1.9480
    4AIB   HB12   51  21.200  20.294  21.069  0.7421 -0.6561 -0.3953
    4AIB   HB13   52  21.275  20.409  21.180  1.0474  0.8238  0.2770
    4AIB    CB2   53  21.367  20.344  20.846 -0.7272  0.4771 -0.0950
    4AIB   HB21   54  21.447  20.268  20.857  1.6212  2.9343  0.6926
    4AIB   HB22   55  21.405  20.405  20.761 -1.3150 -0.0741 -0.7662
    4AIB   HB23   56  21.268  20.302  20.818 -0.6270 -0.7262  1.2348
    4AIB      C   57  21.235  20.535  20.940 -0.0414  0.6729 -0.4484
    4AIB      O   58  21.173  20.544  20.832 -0.2111  0.1019 -0.6173
    5AIB      N   59  21.203  20.620  21.041  0.2176 -0.1276  0.3780
    5AIB     HN   60  21.264  20.600  21.117  0.4518 -1.8072 -0.2201
    5AIB     CA   61  21.102  20.724  21.047  0.5218  0.5850  0.1490
    5AIB    CB1   62  21.126  20.812  21.170 -0.3851  0.2543  0.0624
    5AIB   HB11   63  21.140  20.749  21.260  0.8641  0.1032 -0.2160
    5AIB   HB12   64  21.042  20.883  21.189  0.0514  0.5331  1.0336
    5AIB   HB13   65  21.228  20.855  21.164  0.2083 -1.2486 -1.4219
    5AIB    CB2   66  20.967  20.655  21.068  0.0755  0.3631  0.1243
    5AIB   HB21   67  20.883  20.728  21.077  0.5792  0.9701 -0.0323
    5AIB   HB22   68  20.961  20.595  21.161 -1.2386 -0.3383 -0.3909
    5AIB   HB23   69  20.955  20.588  20.980  2.2919  0.5562 -0.3753
    5AIB      C   70  21.117  20.816  20.922 -0.7094 -0.9116 -0.2336
    5AIB      O   71  21.029  20.830  20.835  0.0139  0.3516 -0.3333
    6AIB      N   72  21.251  20.867  20.908  0.0002 -0.1876 -0.7214
    6AIB     HN   73  21.326  20.848  20.970 -0.1081  1.0700 -0.1656
    6AIB     CA   74  21.291  20.966  20.816 -0.3925  0.4454  0.6970
    6AIB    CB1   75  21.445  20.989  20.828  0.0352  0.1618 -0.5353
    6AIB   HB11   76  21.484  21.054  20.747  1.8559 -1.3727 -0.9501
    6AIB   HB12   77  21.493  20.889  20.819  0.4258  0.0255  2.1563
    6AIB   HB13   78  21.456  21.042  20.925  0.3669  1.8597 -1.4528
    6AIB    CB2   79  21.216  21.098  20.844  0.6114 -0.9942  0.5469
    6AIB   HB21   80  21.231  21.179  20.768 -0.7191  0.3484  1.6452
    6AIB   HB22   81  21.254  21.140  20.939 -2.5879 -0.4615  1.7104
    6AIB   HB23   82  21.108  21.079  20.862  0.8087 -0.4287  2.6672
    6AIB      C   83  21.265  20.916  20.678  0.0430 -0.1590 -0.1768
    6AIB      O   84  21.214  20.988  20.590  0.2500  0.3024 -0.3149
    7AIB      N   85  21.297  20.790  20.644  0.0910 -0.0005  0.0032
    7AIB     HN   86  21.329  20.730  20.716  0.4299  1.5758  1.2431
    7AIB     CA   87  21.288  20.723  20.513 -0.3000 -0.3357  0.3458
    7AIB    CB1   88  21.344  20.582  20.522 -0.6313 -0.2165 -0.1403
    7AIB   HB11   89  21.451  20.585  20.552 -0.0037 -1.4152 -1.9977
    7AIB   HB12   90  21.336  20.528  20.425 -0.7300  0.4523 -0.5051
    7AIB   HB13   91  21.280  20.523  20.591 -0.0042 -1.7956 -0.8703
    7AIB    CB2   92  21.366  20.799  20.399 -0.1889  0.3125  0.3297
    7AIB   HB21   93  21.384  20.736  20.309 -0.0323  0.0743  0.5288
    7AIB   HB22   94  21.469  20.823  20.433 -0.4714  0.6269  0.9619
    7AIB   HB23   95  21.322  20.897  20.373 -0.5772 -0.0291 -0.3325
    7AIB      C   96  21.137  20.710  20.482 -0.2899 -0.9522  0.7054
    7AIB      O   97  21.100  20.744  20.370 -0.1534  0.1671  1.1068
    8AIB      N   98  21.050  20.668  20.579  0.5225 -0.2462  0.1353
    8AIB     HN   99  21.082  20.652  20.672  0.8194 -2.5868 -0.2778
    8AIB     CA  100  20.909  20.640  20.560  0.0593  0.1434 -0.0136
    8AIB    CB1  101  20.854  20.583  20.691 -0.6418  0.1393  0.3089
    8AIB   HB11  102  20.870  20.652  20.776 -0.5539  0.5968 -0.0804
    8AIB   HB12  103  20.911  20.490  20.713 -0.6239  0.1734  0.4221
    8AIB   HB13  104  20.745  20.567  20.677 -1.1965  3.2204  0.3786
    8AIB    CB2  105  20.880  20.546  20.444  0.0980 -0.2716 -0.2580
    8AIB   HB21  106  20.941  20.454  20.450  1.8211  0.9556  2.7322
    8AIB   HB22  107  20.908  20.604  20.353  1.0588  2.4853  1.6342
    8AIB   HB23  108  20.773  20.520  20.453  0.4969 -3.0207 -2.2146
    8AIB      C  109  20.825  20.765  20.542 -0.4534  0.2074 -0.0818
    8AIB      O  110  20.730  20.759  20.464  0.1434  0.1490 -0.3122
    9AIB      N  111  20.864  20.884  20.600  0.1855 -0.2419 -0.2616
    9AIB     HN  112  20.934  20.892  20.670 -0.6477  0.0299  0.5714
    9AIB     CA  113  20.798  21.005  20.571  0.6014  0.6185 -1.1694
    9AIB    CB1  114  20.863  21.104  20.667 -0.2380  0.4761 -0.6702
    9AIB   HB11  115  20.850  21.068  20.771 -0.1991 -0.1127 -0.8585
    9AIB   HB12  116  20.811  21.199  20.644 -0.2407  0.7409  0.3993
    9AIB   HB13  117  20.973  21.116  20.655 -0.0908  0.0324  0.1344
    9AIB    CB2  118  20.645  20.988  20.600  0.0448  0.6424 -0.3422
    9AIB   HB21  119  20.637  20.951  20.704  2.2091  1.5229  0.1889
    9AIB   HB22  120  20.590  20.914  20.538 -0.0235 -2.5287  3.1413
    9AIB   HB23  121  20.588  21.083  20.586 -1.4710  0.2016  2.1384
    9AIB      C  122  20.832  21.057  20.424 -0.0973 -0.4555  0.7458
    9AIB      O  123  20.747  21.119  20.365  0.5983 -0.1336 -0.5305
    9AIB     NT  124  20.952  21.020  20.366  0.2823 -0.1095  0.4046
    9AIB    HNT  125  20.997  20.946  20.415  1.6493  0.9441  0.8146
    9AIB    CAT  126  20.970  21.058  20.224  0.5575  0.8056 -0.8291
    9AIB    HT1  127  20.972  21.168  20.209  2.0307  0.8638 -0.4446
    9AIB    HT2  128  20.879  21.037  20.165  0.4653  0.1465 -0.4580
    9AIB    HT3  129  21.047  21.000  20.169 -1.6916 -1.6653 -1.5592
  42.09246  42.09246  42.09246
