Protein
   32
    1ACE   HH31    1  11.808   6.510  12.491  3.3013  0.2589 -0.4174
    1ACE    CH3    2  11.807   6.608  12.538  0.9292  0.1042 -0.0283
    1ACE   HH32    3  11.884   6.609  12.615  1.8709  0.9738 -0.9584
    1ACE   HH33    4  11.708   6.625  12.582  0.3267  0.6837 -1.5117
    1ACE      C    5  11.825   6.712  12.437 -0.0309  0.5770  0.2505
    1ACE      O    6  11.863   6.677  12.326  0.2708 -0.1602 -0.4865
    2ALA      N    7  11.783   6.836  12.465  0.2425 -0.4957  0.5007
    2ALA      H    8  11.740   6.846  12.556  0.6038  0.5830  0.5735
    2ALA     CA    9  11.812   6.955  12.387  0.0555 -0.2754  0.4240
    2ALA     HA   10  11.759   6.945  12.292  0.6915 -1.7937  0.2061
    2ALA     CB   11  11.763   7.075  12.464  0.4130  0.4411  0.1747
    2ALA    HB1   12  11.657   7.062  12.486  0.0403  3.0117  0.0997
    2ALA    HB2   13  11.816   7.079  12.559 -1.4539 -2.5905  1.5106
    2ALA    HB3   14  11.796   7.157  12.400  1.8234 -0.4902 -0.3558
    2ALA      C   15  11.962   6.968  12.333  0.0858 -0.1773 -0.3714
    2ALA      O   16  12.050   6.947  12.416 -0.1093 -0.0374 -0.4436
    3ALA      N   17  11.988   6.999  12.208 -0.5007 -0.4597 -0.2385
    3ALA      H   18  11.911   7.019  12.146  0.6331 -0.6960 -1.7779
    3ALA     CA   19  12.132   7.013  12.158 -0.2177  0.4407  0.5185
    3ALA     HA   20  12.118   7.043  12.054  0.5705 -0.6391  0.0844
    3ALA     CB   21  12.198   7.131  12.230 -0.5490 -0.1113 -0.3463
    3ALA    HB1   22  12.242   7.096  12.324 -2.2826 -2.1531 -0.2306
    3ALA    HB2   23  12.279   7.177  12.173  0.6205 -1.4601  0.1883
    3ALA    HB3   24  12.123   7.210  12.240 -1.3635 -0.5032 -2.6789
    3ALA      C   25  12.215   6.880  12.144 -0.0738 -0.5700 -0.3911
    3ALA      O   26  12.306   6.876  12.064 -1.0531 -0.3864 -0.3938
    4NME      N   27  12.173   6.768  12.204 -0.0333 -0.0539 -0.3997
    4NME      H   28  12.085   6.763  12.252 -0.2792  2.3629 -0.4328
    4NME    CH3   29  12.246   6.639  12.184  0.5284  0.4144 -0.3005
    4NME   HH31   30  12.215   6.568  12.261 -1.3251  1.1704 -0.3056
    4NME   HH32   31  12.209   6.608  12.087 -2.7584 -0.5094  1.1064
    4NME   HH33   32  12.353   6.661  12.181  0.7157  0.2472  2.4073
  20.99041  20.99041  20.99041
