Protein
   22
    1ACE   HH31    1   4.387   0.428   1.051 -0.0671  0.7709 -0.3171
    1ACE    CH3    2   4.495   0.430   1.041 -0.1091 -0.2624 -1.1943
    1ACE   HH32    3   4.531   0.527   1.074  1.0148 -1.1255  0.2686
    1ACE   HH33    4   4.529   0.410   0.939  1.7614 -0.2796 -0.6067
    1ACE      C    5   4.556   0.333   1.138 -0.1121 -0.1884  0.0526
    1ACE      O    6   4.671   0.336   1.164 -1.0598 -0.1906 -0.6730
    2ALA      N    7   4.477   0.246   1.192  0.1741 -0.0344 -0.0480
    2ALA      H    8   4.380   0.251   1.164 -0.1982  0.3928  1.2256
    2ALA     CA    9   4.504   0.176   1.320  0.2729 -0.0390  0.4151
    2ALA     HA   10   4.558   0.242   1.387 -2.1506  1.7043  0.8036
    2ALA     CB   11   4.367   0.147   1.374  0.1383 -0.6238 -0.2390
    2ALA    HB1   12   4.326   0.243   1.404  1.8890 -0.3011  1.3215
    2ALA    HB2   13   4.296   0.094   1.310  0.8197 -2.0756  0.1486
    2ALA    HB3   14   4.385   0.085   1.462 -0.5473 -0.1883  0.2291
    2ALA      C   15   4.576   0.040   1.292 -0.3804  0.4511  0.1154
    2ALA      O   16   4.650  -0.005   1.382 -0.0536  0.0529  0.3233
    3NME      N   17   4.552  -0.038   1.187  0.9197 -0.3796 -0.1532
    3NME      H   18   4.482  -0.010   1.119  0.6768 -1.8045 -0.5058
    3NME    CH3   19   4.612  -0.172   1.155  0.4025 -1.1252  0.0385
    3NME   HH31   20   4.561  -0.260   1.194 -1.3704 -0.4508 -0.6674
    3NME   HH32   21   4.622  -0.178   1.047 -0.6912 -1.5766 -0.0497
    3NME   HH33   22   4.713  -0.174   1.194  0.3406  0.6222  0.3633
  10.72160  10.72160  10.72160
