Protein
   32
    1ACE   HH31    1  13.518  12.429   8.278  0.5814  1.5729 -1.9268
    1ACE    CH3    2  13.465  12.489   8.351 -0.0949 -0.2650 -0.8418
    1ACE   HH32    3  13.363  12.510   8.319  0.2180  2.1138 -0.5044
    1ACE   HH33    4  13.508  12.586   8.375 -0.8678 -0.4065  1.3517
    1ACE      C    5  13.459  12.416   8.485  0.7704 -0.1129  0.1606
    1ACE      O    6  13.565  12.381   8.537 -0.2056 -0.1463 -0.3725
    2ALA      N    7  13.343  12.415   8.545  0.2564 -0.1059  0.0100
    2ALA      H    8  13.265  12.460   8.499  1.7565 -0.1516 -2.8270
    2ALA     CA    9  13.308  12.340   8.667 -0.2460 -0.3005 -0.1108
    2ALA     HA   10  13.370  12.251   8.677  0.5588  0.2843  0.3284
    2ALA     CB   11  13.325  12.437   8.785 -0.6890  0.3679  0.0614
    2ALA    HB1   12  13.433  12.451   8.786 -0.2857 -2.1546 -0.6042
    2ALA    HB2   13  13.275  12.531   8.764 -3.0198 -0.8689 -0.3594
    2ALA    HB3   14  13.296  12.392   8.880 -2.5827  0.1718 -0.5489
    2ALA      C   15  13.160  12.290   8.653 -0.2248 -0.3259  0.2193
    2ALA      O   16  13.120  12.264   8.538  0.1217 -0.0737  1.0225
    3ALA      N   17  13.080  12.280   8.755 -0.0094 -0.5859 -0.6241
    3ALA      H   18  13.116  12.297   8.848 -0.1494 -1.1976 -0.4555
    3ALA     CA   19  12.928  12.278   8.748 -0.7246 -0.1584 -0.0495
    3ALA     HA   20  12.899  12.251   8.646 -0.5273  1.4306 -0.5585
    3ALA     CB   21  12.881  12.153   8.824 -0.2304  0.6753  0.1062
    3ALA    HB1   22  12.950  12.072   8.798 -1.1861  0.0191 -0.3972
    3ALA    HB2   23  12.872  12.167   8.932 -0.2991 -0.8361  0.3108
    3ALA    HB3   24  12.779  12.126   8.797 -0.2063 -1.2935  1.7424
    3ALA      C   25  12.859  12.409   8.786  0.3976 -0.2185 -0.6237
    3ALA      O   26  12.793  12.461   8.703 -0.2161  0.0573  0.0324
    4NME      N   27  12.869  12.458   8.911  0.0006 -0.0242  0.3977
    4NME      H   28  12.922  12.406   8.979  0.8437  2.3348  1.6401
    4NME    CH3   29  12.812  12.579   8.957  0.6160 -1.2076  0.6143
    4NME   HH31   30  12.710  12.586   8.919  1.2441 -0.0250 -0.9740
    4NME   HH32   31  12.799  12.585   9.065  0.0226  2.0420  0.4555
    4NME   HH33   32  12.875  12.662   8.925  1.3940 -2.4193 -1.0703
  20.99041  20.99041  20.99041
