Protein
   42
    1ACE   HH31    1  10.464  12.363  11.963  1.6662  0.7080 -0.3359
    1ACE    CH3    2  10.449  12.405  12.062 -0.6158  0.0519 -0.3410
    1ACE   HH32    3  10.501  12.336  12.129 -1.5373  0.8551  1.2533
    1ACE   HH33    4  10.345  12.409  12.093 -0.4636  0.1603  0.1852
    1ACE      C    5  10.527  12.539  12.059  0.5038 -0.9548 -0.0559
    1ACE      O    6  10.499  12.621  12.148  0.3822 -0.2680  0.2700
    2ALA      N    7  10.625  12.570  11.973 -0.3033  0.2018 -0.3753
    2ALA      H    8  10.649  12.502  11.902  0.8899  0.7347 -0.5098
    2ALA     CA    9  10.705  12.695  11.975 -0.0733  0.6139 -0.0488
    2ALA     HA   10  10.702  12.732  12.078 -0.9585  1.0556 -0.2267
    2ALA     CB   11  10.843  12.653  11.940  0.2782  0.1892  0.8121
    2ALA    HB1   12  10.855  12.643  11.832 -0.0191 -0.7997  0.8675
    2ALA    HB2   13  10.908  12.734  11.974 -0.6363  1.9199 -1.3113
    2ALA    HB3   14  10.875  12.562  11.990  1.5189 -1.3281 -2.4204
    2ALA      C   15  10.629  12.795  11.876  0.2922 -0.5284  0.0473
    2ALA      O   16  10.544  12.755  11.793  0.6148 -0.9305 -0.2206
    3ALA      N   17  10.660  12.926  11.882 -0.6380  0.0525  0.4110
    3ALA      H   18  10.615  12.969  11.802  0.5170  0.0150 -0.2725
    3ALA     CA   19  10.728  13.026  11.971  0.6701 -0.1545 -0.2019
    3ALA     HA   20  10.835  13.007  11.960  0.8370  1.3537 -1.3636
    3ALA     CB   21  10.683  13.169  11.917  0.3837  0.7890 -0.5292
    3ALA    HB1   22  10.739  13.238  11.981  1.5161  0.2399 -0.8811
    3ALA    HB2   23  10.728  13.176  11.818  1.1198 -0.0266 -0.2702
    3ALA    HB3   24  10.576  13.182  11.925  0.2102  0.6026 -2.1749
    3ALA      C   25  10.703  13.019  12.125  0.0546 -0.2260 -0.2713
    3ALA      O   26  10.783  13.084  12.192  0.1368  0.5161 -0.5967
    4ALA      N   27  10.607  12.943  12.177 -0.2491  0.0690 -0.5487
    4ALA      H   28  10.533  12.912  12.116  0.7626 -0.2638 -1.6397
    4ALA     CA   29  10.571  12.945  12.317  0.3472  0.3612 -0.2173
    4ALA     HA   30  10.603  13.041  12.357  1.3656  0.5457 -1.3958
    4ALA     CB   31  10.423  12.913  12.337  0.0619  0.2381 -0.5319
    4ALA    HB1   32  10.362  12.984  12.280 -1.0523 -0.0846  0.2251
    4ALA    HB2   33  10.392  12.814  12.303  0.7406 -0.3981  0.6838
    4ALA    HB3   34  10.387  12.924  12.439 -1.5069 -2.0612 -0.7622
    4ALA      C   35  10.653  12.851  12.406 -0.0296 -0.2165  0.8315
    4ALA      O   36  10.738  12.890  12.481  0.0223 -0.5304 -0.0344
    5NME      N   37  10.644  12.719  12.376 -0.3513 -0.4314  0.2827
    5NME      H   38  10.589  12.687  12.298  0.4126  2.2355 -1.4980
    5NME    CH3   39  10.707  12.616  12.454 -0.0478  0.4029  0.0859
    5NME   HH31   40  10.712  12.527  12.391 -0.6124  0.7124 -0.4049
    5NME   HH32   41  10.807  12.658  12.468  0.1817  0.0266 -0.3904
    5NME   HH33   42  10.650  12.602  12.546  1.2161 -1.3642  0.6585
  20.91516  20.91516  20.91516
