Protein
   60
    1ACE   HH31    1  20.125  19.579  23.619 -0.0278  3.2619 -0.2156
    1ACE    CH3    2  20.102  19.568  23.513 -0.0662 -0.2842  0.0403
    1ACE   HH32    3  20.190  19.607  23.462  0.9447  1.5105  2.9125
    1ACE   HH33    4  20.075  19.469  23.476  0.8256 -0.4824 -0.1065
    1ACE      C    5  19.984  19.655  23.488  0.1737  0.4900 -0.3570
    1ACE      O    6  19.985  19.744  23.407  0.5640  0.2226  0.3505
    2TRP      N    7  19.873  19.621  23.555 -0.2165 -0.4069 -0.3792
    2TRP      H    8  19.790  19.667  23.521 -0.3633  0.9951  1.7286
    2TRP     CA    9  19.850  19.542  23.677  0.5031  0.0862  0.7741
    2TRP     HA   10  19.941  19.551  23.736  0.0299 -1.0013  1.7123
    2TRP     CB   11  19.742  19.608  23.760 -0.7970  0.6626  0.7004
    2TRP    HB1   12  19.761  19.710  23.793  0.1756  0.6689  0.1577
    2TRP    HB2   13  19.730  19.545  23.848 -0.7469  0.8312  0.8235
    2TRP     CG   14  19.608  19.610  23.697  0.6969 -0.5881  0.7743
    2TRP    CD1   15  19.511  19.527  23.726  0.6056  0.2922  0.5875
    2TRP    HD1   16  19.527  19.448  23.798  1.0472  1.0999  1.3998
    2TRP    NE1   17  19.394  19.559  23.655  0.4177  0.2617 -0.4525
    2TRP    HE1   18  19.312  19.500  23.661  1.2616 -1.0052 -0.9234
    2TRP    CE2   19  19.423  19.653  23.558  0.0430  0.5216 -0.5721
    2TRP    CZ2   20  19.345  19.708  23.453 -0.3440 -0.1067  0.0981
    2TRP    HZ2   21  19.244  19.674  23.435 -0.7974  1.2739 -0.0361
    2TRP    CH2   22  19.407  19.810  23.377  0.1031  0.0581 -0.0193
    2TRP    HH2   23  19.347  19.853  23.299 -0.2385 -0.1043  0.1471
    2TRP    CZ3   24  19.539  19.853  23.405  0.2823 -0.4245 -0.1349
    2TRP    HZ3   25  19.579  19.929  23.339 -1.4594  0.4375 -0.2658
    2TRP    CE3   26  19.607  19.800  23.513 -0.4593  0.7312 -0.5784
    2TRP    HE3   27  19.704  19.843  23.534 -0.0540 -0.4280  0.0349
    2TRP    CD2   28  19.553  19.693  23.591 -1.7578 -0.1508  0.0587
    2TRP      C   29  19.824  19.386  23.668 -0.0646  0.3637 -0.6947
    2TRP      O   30  19.844  19.311  23.770  0.4037 -0.0317  0.5366
    3TRP      N   31  19.762  19.325  23.569  0.4698 -0.4449  0.2779
    3TRP      H   32  19.772  19.224  23.566  0.9672 -0.3746 -0.9246
    3TRP     CA   33  19.704  19.369  23.441  0.3717 -0.0633 -0.2375
    3TRP     HA   34  19.656  19.464  23.465 -0.1030 -0.4625  0.4211
    3TRP     CB   35  19.602  19.264  23.397 -0.2108  0.4326  0.3564
    3TRP    HB1   36  19.589  19.268  23.289 -0.6488 -2.2697  0.2520
    3TRP    HB2   37  19.642  19.166  23.421 -0.0729  0.3016 -0.3874
    3TRP     CG   38  19.459  19.274  23.451 -0.2486 -0.1463  0.3110
    3TRP    CD1   39  19.356  19.333  23.387 -0.2884 -0.3986 -0.5837
    3TRP    HD1   40  19.359  19.395  23.298 -1.3783 -0.3831 -0.6172
    3TRP    NE1   41  19.242  19.329  23.463 -0.1887  1.3833 -0.2699
    3TRP    HE1   42  19.158  19.369  23.425 -0.2375 -0.7137 -2.6517
    3TRP    CE2   43  19.264  19.252  23.574  0.7594 -0.3205 -0.1978
    3TRP    CZ2   44  19.171  19.210  23.676 -0.2560  0.8046  0.3952
    3TRP    HZ2   45  19.069  19.243  23.672 -0.1410  1.0339 -2.2918
    3TRP    CH2   46  19.217  19.129  23.790  0.4951 -0.2654  0.3302
    3TRP    HH2   47  19.144  19.096  23.862 -0.0588  1.8851  0.8379
    3TRP    CZ3   48  19.353  19.092  23.789  0.5869 -0.5373 -0.2106
    3TRP    HZ3   49  19.395  19.022  23.860 -0.5567 -2.5442 -1.4106
    3TRP    CE3   50  19.435  19.134  23.685  0.0826  0.4167  0.3185
    3TRP    HE3   51  19.535  19.097  23.704 -1.0723 -3.1074  0.3249
    3TRP    CD2   52  19.397  19.217  23.574 -0.0384 -0.0553  0.3081
    3TRP      C   53  19.806  19.388  23.324 -0.0632 -0.0833  0.3302
    3TRP      O   54  19.904  19.315  23.312 -0.0262 -0.2065  0.0167
    4NME      N   55  19.780  19.481  23.234  0.0320 -0.0777 -0.4432
    4NME      H   56  19.694  19.533  23.241  0.1620  0.0189  0.6682
    4NME    CH3   57  19.876  19.519  23.126 -0.2307  0.1427 -0.4501
    4NME   HH31   58  19.817  19.556  23.042 -0.0905 -1.1529 -1.1346
    4NME   HH32   59  19.940  19.592  23.176 -1.2050 -0.0717  1.1736
    4NME   HH33   60  19.928  19.425  23.107 -2.1208 -1.6854  2.5209
  41.12396  41.12396  41.12396
