Protein
   42
    1ACE   HH31    1  10.589  11.723   8.596 -0.8867  0.5342 -1.4263
    1ACE    CH3    2  10.492  11.729   8.647  0.1827  0.0292  0.8143
    1ACE   HH32    3  10.448  11.630   8.643  0.6967 -0.1696 -0.8440
    1ACE   HH33    4  10.436  11.797   8.583  2.3427  0.1817 -1.0591
    1ACE      C    5  10.525  11.773   8.788  0.3417  0.2304  0.0281
    1ACE      O    6  10.542  11.888   8.810  0.1153 -0.2078  0.2903
    2ALA      N    7  10.532  11.676   8.887 -0.2747 -0.1444  0.0147
    2ALA      H    8  10.513  11.580   8.864 -1.3520  0.2560 -0.9498
    2ALA     CA    9  10.615  11.695   9.004 -0.0216 -0.2847 -0.4643
    2ALA     HA   10  10.570  11.783   9.050  0.4297 -0.3917  0.2018
    2ALA     CB   11  10.598  11.574   9.094 -0.0376  0.9548 -0.1174
    2ALA    HB1   12  10.644  11.483   9.057 -0.9596 -0.6139  2.2697
    2ALA    HB2   13  10.644  11.585   9.192  0.8907  0.3842 -0.4748
    2ALA    HB3   14  10.493  11.561   9.120  0.3967  1.0340  1.9293
    2ALA      C   15  10.765  11.728   8.983 -0.6668 -0.0993  0.4919
    2ALA      O   16  10.832  11.651   8.916 -0.5517 -0.6081  0.0173
    3ALA      N   17  10.818  11.839   9.036  0.0581 -0.2560 -0.4925
    3ALA      H   18  10.919  11.848   9.032  0.3286 -1.7517  1.5565
    3ALA     CA   19  10.753  11.952   9.103 -0.0625 -0.2157  0.0076
    3ALA     HA   20  10.658  11.976   9.055  0.1910  2.6061  0.6927
    3ALA     CB   21  10.720  11.919   9.249  0.1907  0.9381 -0.0664
    3ALA    HB1   22  10.657  11.830   9.246  0.6910  0.5145 -3.8634
    3ALA    HB2   23  10.812  11.897   9.304  0.8876  1.8818 -0.8307
    3ALA    HB3   24  10.668  12.000   9.299  0.1302 -0.8829  3.0494
    3ALA      C   25  10.857  12.071   9.085  1.1938  0.9854 -0.3311
    3ALA      O   26  10.977  12.055   9.071 -0.9010  0.2734 -0.1503
    4ALA      N   27  10.805  12.192   9.091  0.8237  0.0309  0.5370
    4ALA      H   28  10.705  12.201   9.101  1.0538  1.9741  1.8314
    4ALA     CA   29  10.879  12.317   9.056 -0.3403 -0.1021 -0.0978
    4ALA     HA   30  10.799  12.391   9.041 -0.4591 -0.1791  0.1446
    4ALA     CB   31  10.946  12.370   9.184 -0.0323  0.1662 -0.4262
    4ALA    HB1   32  11.012  12.454   9.161 -0.1588  0.2270 -0.5678
    4ALA    HB2   33  10.874  12.393   9.262 -0.0164 -0.3931 -0.2318
    4ALA    HB3   34  11.016  12.295   9.223  0.6671  0.3573 -1.2806
    4ALA      C   35  10.968  12.335   8.930  0.2756 -0.1851  0.4038
    4ALA      O   36  10.991  12.450   8.889 -0.4297  0.0470  0.6576
    5NME      N   37  11.029  12.237   8.874 -0.9913 -0.1871  0.5366
    5NME      H   38  11.015  12.154   8.929 -1.8543  0.2411  0.9829
    5NME    CH3   39  11.100  12.243   8.742 -0.3625 -0.5618 -0.7340
    5NME   HH31   40  11.031  12.278   8.665  1.1320 -1.2584 -2.4899
    5NME   HH32   41  11.178  12.319   8.755 -1.3990  0.7111 -1.6860
    5NME   HH33   42  11.152  12.148   8.728 -1.7392 -1.6031  0.8653
  20.91516  20.91516  20.91516
