Protein
   32
    1ACE   HH31    1  10.158  12.539   7.345  0.4682  0.8089 -0.4322
    1ACE    CH3    2  10.241  12.598   7.383  0.7490  0.2253 -0.1219
    1ACE   HH32    3  10.268  12.669   7.305  0.0553  0.3569 -0.2508
    1ACE   HH33    4  10.321  12.535   7.420  0.0936 -0.3735  0.3027
    1ACE      C    5  10.193  12.685   7.498 -0.1158 -0.7426  0.4015
    1ACE      O    6  10.265  12.728   7.586 -0.3647  0.1053 -0.0993
    2ALA      N    7  10.066  12.712   7.494  0.5274  0.1066 -0.0126
    2ALA      H    8  10.006  12.679   7.420 -0.5281  3.2836 -0.7748
    2ALA     CA    9  10.000  12.812   7.574  0.5204 -0.5903  0.9020
    2ALA     HA   10  10.078  12.886   7.590 -0.9184  1.5152 -1.1554
    2ALA     CB   11   9.903  12.891   7.483  0.6833  0.2365  0.1711
    2ALA    HB1   12   9.816  12.829   7.465  0.4731  0.5065  0.2523
    2ALA    HB2   13   9.864  12.981   7.532 -0.8844 -0.0930 -0.4043
    2ALA    HB3   14   9.942  12.919   7.385 -1.3290  2.6778 -0.0307
    2ALA      C   15   9.958  12.775   7.715 -0.0131  0.3790  0.2124
    2ALA      O   16   9.856  12.822   7.765 -0.5180  0.4323 -0.0016
    3ALA      N   17  10.035  12.680   7.771 -0.6383 -0.1744 -0.1079
    3ALA      H   18  10.114  12.650   7.715  0.5114 -0.1294  1.4323
    3ALA     CA   19  10.022  12.603   7.896 -0.9047  0.0591  0.2050
    3ALA     HA   20  10.114  12.544   7.898 -0.8989 -0.1544 -2.2726
    3ALA     CB   21  10.034  12.695   8.021  0.2854 -0.0545 -0.1369
    3ALA    HB1   22  10.109  12.773   8.013  0.4461 -0.1472  0.4269
    3ALA    HB2   23   9.934  12.731   8.046  0.6439 -0.0747  1.4063
    3ALA    HB3   24  10.067  12.642   8.110 -0.1542  0.0424  0.0936
    3ALA      C   25   9.911  12.502   7.901 -0.3678  0.5938 -0.4849
    3ALA      O   26   9.826  12.497   7.811 -0.4364  0.0978  0.2003
    4NME      N   27   9.906  12.418   8.007 -0.3468  0.1825  0.3265
    4NME      H   28   9.953  12.440   8.094  1.5580 -0.4508 -0.4850
    4NME    CH3   29   9.814  12.306   8.026 -0.2378 -0.4807  0.2941
    4NME   HH31   30   9.712  12.332   7.996  0.4353  0.9399 -0.9624
    4NME   HH32   31   9.841  12.230   7.953 -0.7664 -0.4448  0.0466
    4NME   HH33   32   9.816  12.251   8.120  0.1127 -0.9660  0.0088
  20.99041  20.99041  20.99041
