Title
  129
    1AIB    CAY    1  15.211   2.955  20.524  0.1382 -1.1425  0.2948
    1AIB    HY1    2  15.265   2.958  20.426  0.4833 -0.5302  0.4893
    1AIB    HY2    3  15.127   3.028  20.525  0.8302 -0.1831 -2.1655
    1AIB    HY3    4  15.183   2.849  20.533 -0.5810 -0.8997  0.9363
    1AIB     CY    5  15.317   3.002  20.620  0.6852  0.1482 -0.1111
    1AIB     OY    6  15.434   3.011  20.586 -0.2229  0.1714 -0.6494
    1AIB      N    7  15.264   3.015  20.744  0.7574 -0.2667 -0.2217
    1AIB     HN    8  15.166   3.001  20.754  0.7747 -0.2960 -0.0852
    1AIB     CA    9  15.324   3.070  20.864  0.3753 -0.0415 -0.5043
    1AIB    CB1   10  15.233   3.028  20.990 -0.2985  0.1704 -0.4001
    1AIB   HB11   11  15.289   3.073  21.075  1.4208 -1.5657 -0.5486
    1AIB   HB12   12  15.232   2.920  21.013  1.2414  0.1551 -0.3316
    1AIB   HB13   13  15.135   3.078  20.978 -0.9041 -0.7541  0.6025
    1AIB    CB2   14  15.325   3.224  20.851  0.3761 -0.0251  0.0245
    1AIB   HB21   15  15.385   3.263  20.766  0.6599  1.4158  0.8598
    1AIB   HB22   16  15.373   3.264  20.943 -2.1840  1.3619  0.8357
    1AIB   HB23   17  15.223   3.265  20.837  1.5548  2.9434 -0.3812
    1AIB      C   18  15.458   3.017  20.894  0.1258  0.1539  0.3638
    1AIB      O   19  15.556   3.084  20.926 -0.1640 -0.0411 -0.0093
    2AIB      N   20  15.467   2.883  20.891  0.3264  0.5455  0.0074
    2AIB     HN   21  15.395   2.824  20.855  0.5160  1.6853 -2.4396
    2AIB     CA   22  15.597   2.812  20.899 -0.8397 -0.1319 -0.3202
    2AIB    CB1   23  15.570   2.671  20.858  0.0785 -0.3970  0.0516
    2AIB   HB11   24  15.662   2.612  20.875  0.9061  0.8564  0.0937
    2AIB   HB12   25  15.539   2.651  20.754  1.0672 -2.6581  0.1279
    2AIB   HB13   26  15.494   2.628  20.927  2.4455  0.5990  3.6077
    2AIB    CB2   27  15.636   2.816  21.051 -0.4456  0.3493 -0.4411
    2AIB   HB21   28  15.577   2.775  21.136  0.7636  1.0584  0.7789
    2AIB   HB22   29  15.651   2.922  21.080  2.7777  0.3945 -1.8636
    2AIB   HB23   30  15.735   2.767  21.062  0.0542  0.9843 -1.7864
    2AIB      C   31  15.717   2.861  20.809  0.4137  0.2956 -0.2660
    2AIB      O   32  15.826   2.874  20.859  0.5776 -0.9529  0.0194
    3AIB      N   33  15.685   2.877  20.676 -0.0387 -0.3712  0.2835
    3AIB     HN   34  15.594   2.892  20.639 -0.3552  1.2968  1.6037
    3AIB     CA   35  15.787   2.913  20.575  0.0129 -0.7693 -0.0070
    3AIB    CB1   36  15.719   2.933  20.433  0.5745 -0.1815  0.0469
    3AIB   HB11   37  15.697   2.828  20.402 -2.0280  0.0140  1.0381
    3AIB   HB12   38  15.790   2.967  20.354 -1.1927 -1.4303 -2.2059
    3AIB   HB13   39  15.624   2.989  20.436  1.1191  1.3032 -4.2882
    3AIB    CB2   40  15.914   2.816  20.562  0.2485 -0.3298 -0.4732
    3AIB   HB21   41  15.878   2.721  20.518  0.8533 -1.0539  0.5417
    3AIB   HB22   42  15.956   2.804  20.664  1.0686 -0.8573 -0.8593
    3AIB   HB23   43  15.977   2.860  20.482 -2.1285 -0.5515 -2.5886
    3AIB      C   44  15.836   3.064  20.608  0.5931 -0.6437  0.0199
    3AIB      O   45  15.957   3.099  20.590  0.1280 -0.5744  0.2227
    4AIB      N   46  15.740   3.157  20.646 -0.0713 -0.1399 -0.5131
    4AIB     HN   47  15.643   3.133  20.647 -0.1031 -0.0527 -0.8024
    4AIB     CA   48  15.765   3.296  20.685  0.0656  0.1290  0.3805
    4AIB    CB1   49  15.638   3.360  20.736 -0.3391  0.0248  0.2511
    4AIB   HB11   50  15.657   3.467  20.759  0.2385 -0.0378  0.0815
    4AIB   HB12   51  15.594   3.304  20.821  0.5824 -0.1644  0.6169
    4AIB   HB13   52  15.564   3.359  20.653  0.2680 -1.4500 -0.3059
    4AIB    CB2   53  15.808   3.387  20.563  0.3886  0.0506 -0.9944
    4AIB   HB21   54  15.727   3.382  20.486 -1.9836 -0.3088  1.3609
    4AIB   HB22   55  15.904   3.345  20.526  1.5724 -0.4660  2.3703
    4AIB   HB23   56  15.815   3.494  20.594  2.1698 -0.4513  0.4807
    4AIB      C   57  15.871   3.308  20.798  0.5015 -0.1239 -0.2356
    4AIB      O   58  15.968   3.381  20.785 -0.6298  0.4058 -0.1224
    5AIB      N   59  15.863   3.224  20.909 -0.0320  0.4594  0.4921
    5AIB     HN   60  15.782   3.167  20.919  1.1304 -1.3608 -0.0305
    5AIB     CA   61  15.957   3.213  21.015  0.2650 -0.5128  0.2459
    5AIB    CB1   62  15.906   3.101  21.109 -0.3654 -0.1821  0.2325
    5AIB   HB11   63  15.813   3.129  21.163 -0.7885  2.2058 -1.5185
    5AIB   HB12   64  15.975   3.080  21.194 -0.1992  0.4828  0.2752
    5AIB   HB13   65  15.877   3.009  21.055  2.0391  1.5663 -4.6585
    5AIB    CB2   66  15.949   3.345  21.092  0.0311 -0.6440 -0.2413
    5AIB   HB21   67  15.848   3.358  21.136 -0.1873 -0.4522 -0.7756
    5AIB   HB22   68  15.972   3.436  21.032 -1.4284  0.2614  0.5093
    5AIB   HB23   69  16.026   3.338  21.172 -0.6387  0.6156  0.5528
    5AIB      C   70  16.095   3.178  20.965 -0.4416 -0.3260  0.2256
    5AIB      O   71  16.196   3.238  21.007 -0.5102 -0.5371  0.2823
    6AIB      N   72  16.109   3.077  20.881 -1.0599  0.5938  0.9042
    6AIB     HN   73  16.028   3.042  20.834 -0.2668 -0.5540  0.3605
    6AIB     CA   74  16.239   3.022  20.844  0.1475  0.1807  0.1724
    6AIB    CB1   75  16.224   2.907  20.741 -0.2756  0.2963 -0.0804
    6AIB   HB11   76  16.314   2.863  20.692  0.9658  2.3095  0.2387
    6AIB   HB12   77  16.151   2.930  20.660 -1.7391 -1.3964  0.6877
    6AIB   HB13   78  16.185   2.819  20.796  2.1203  0.0577  1.3586
    6AIB    CB2   79  16.307   2.951  20.963 -0.2571  0.0103 -0.4341
    6AIB   HB21   80  16.234   2.876  21.000  0.6231 -0.0044  1.3926
    6AIB   HB22   81  16.340   3.025  21.040  1.9373  0.5056 -1.7504
    6AIB   HB23   82  16.391   2.888  20.926  0.0228 -0.9176  1.6177
    6AIB      C   83  16.332   3.129  20.781 -0.1910  0.3055 -0.5590
    6AIB      O   84  16.450   3.145  20.799  0.1667  0.3212  0.1384
    7AIB      N   85  16.271   3.195  20.681 -0.4796  0.1768  0.4561
    7AIB     HN   86  16.175   3.168  20.673 -0.6673  1.3199 -1.6024
    7AIB     CA   87  16.326   3.279  20.583  0.0384 -0.5405  0.0064
    7AIB    CB1   88  16.213   3.322  20.485 -0.4953  0.1594  0.4442
    7AIB   HB11   89  16.168   3.228  20.448 -1.7428  0.1096  1.9923
    7AIB   HB12   90  16.245   3.384  20.398  1.6031 -1.2283  0.1580
    7AIB   HB13   91  16.135   3.383  20.536  0.9230  3.3354 -0.9152
    7AIB    CB2   92  16.429   3.201  20.499 -0.0281 -0.5053  0.1595
    7AIB   HB21   93  16.460   3.272  20.419 -2.6284  1.2366  0.6150
    7AIB   HB22   94  16.385   3.106  20.461 -0.4500 -1.3085  2.5027
    7AIB   HB23   95  16.525   3.174  20.547  1.7609  1.2636 -2.2014
    7AIB      C   96  16.370   3.412  20.644  0.3594  0.3626  0.1336
    7AIB      O   97  16.468   3.471  20.597  0.1919  0.0215 -0.4372
    8AIB      N   98  16.301   3.457  20.756  0.4270  0.2819 -0.8224
    8AIB     HN   99  16.213   3.414  20.771 -1.0797  3.5452  0.6700
    8AIB     CA  100  16.328   3.573  20.843 -0.5393  0.5612  0.4559
    8AIB    CB1  101  16.206   3.595  20.925 -0.3145  0.3474  0.1616
    8AIB   HB11  102  16.216   3.694  20.974  0.1706 -0.3417  1.5053
    8AIB   HB12  103  16.187   3.514  20.999  1.7167 -0.5431 -0.2086
    8AIB   HB13  104  16.123   3.606  20.852  0.7537 -1.7298 -1.4933
    8AIB    CB2  105  16.349   3.703  20.762 -0.5885  0.8422 -0.5636
    8AIB   HB21  106  16.445   3.709  20.708 -1.1547 -0.1588 -1.7652
    8AIB   HB22  107  16.359   3.790  20.830 -0.3206  1.2385 -1.0982
    8AIB   HB23  108  16.275   3.713  20.679 -2.0301 -1.4363  0.3432
    8AIB      C  109  16.449   3.540  20.936 -0.4863 -1.4992 -0.1593
    8AIB      O  110  16.522   3.640  20.960 -0.2621  0.2903 -0.1220
    9AIB      N  111  16.475   3.421  20.985  0.3971 -0.5977 -0.3529
    9AIB     HN  112  16.398   3.360  20.968 -0.7146  0.4924  0.6072
    9AIB     CA  113  16.584   3.369  21.060  0.7110  0.2841 -0.3382
    9AIB    CB1  114  16.560   3.222  21.091  0.6045 -0.3934  0.1966
    9AIB   HB11  115  16.645   3.182  21.152  1.5757  0.7537 -0.3506
    9AIB   HB12  116  16.538   3.163  21.000  0.4043  0.9601 -0.6470
    9AIB   HB13  117  16.467   3.225  21.152  0.0550  3.3837 -0.5561
    9AIB    CB2  118  16.589   3.461  21.188  0.6155  0.3488 -0.3596
    9AIB   HB21  119  16.626   3.563  21.166  0.4322  0.7000  0.8639
    9AIB   HB22  120  16.649   3.403  21.262  2.0223  0.7935 -1.1301
    9AIB   HB23  121  16.488   3.477  21.230  0.3287  1.0753 -1.3069
    9AIB      C  122  16.712   3.386  20.968  0.4001 -0.0873 -0.0023
    9AIB      O  123  16.818   3.446  21.002  0.1705 -0.2630  0.5136
    9AIB     NT  124  16.694   3.321  20.851 -0.3119 -0.3437  0.0118
    9AIB    HNT  125  16.607   3.275  20.840  0.3779 -2.3126  2.1525
    9AIB    CAT  126  16.793   3.296  20.756 -0.0035  0.0494  0.8305
    9AIB    HT1  127  16.824   3.395  20.716 -0.7357 -0.2810 -0.5899
    9AIB    HT2  128  16.745   3.241  20.673 -1.9923 -0.7799  2.4464
    9AIB    HT3  129  16.875   3.238  20.803 -1.1527 -1.4506  1.0520
  42.09246  42.09246  42.09246
