Protein
   42
    1ACE   HH31    1  11.175   6.880  11.111 -1.3477  0.1953  1.2705
    1ACE    CH3    2  11.232   6.803  11.164 -0.1840  0.1961  0.0484
    1ACE   HH32    3  11.179   6.709  11.177  0.8884 -0.4158  0.0140
    1ACE   HH33    4  11.262   6.837  11.263 -1.1749  0.7807  0.1688
    1ACE      C    5  11.353   6.779  11.071  0.4833  0.8454  0.3957
    1ACE      O    6  11.467   6.805  11.112  0.4072  0.3822  0.0180
    2ALA      N    7  11.323   6.735  10.944  0.0085  0.1873 -0.3103
    2ALA      H    8  11.225   6.715  10.934 -0.1725  0.4992  0.7204
    2ALA     CA    9  11.412   6.733  10.826  0.9202  0.5010 -0.5830
    2ALA     HA   10  11.475   6.645  10.831 -0.3928 -0.3985  0.5577
    2ALA     CB   11  11.325   6.695  10.710  0.0620 -0.9908  0.4291
    2ALA    HB1   12  11.278   6.597  10.718 -0.1277 -0.8751  0.8155
    2ALA    HB2   13  11.253   6.774  10.691  0.6407 -1.1255 -3.0272
    2ALA    HB3   14  11.387   6.700  10.621 -1.0191 -0.3661 -0.3190
    2ALA      C   15  11.505   6.854  10.812 -0.1599 -0.4372 -0.2854
    2ALA      O   16  11.459   6.959  10.777 -0.1208  0.1034  0.5013
    3ALA      N   17  11.638   6.843  10.822 -0.2242 -0.0194 -0.0697
    3ALA      H   18  11.683   6.933  10.813  0.4032 -0.4618 -1.7134
    3ALA     CA   19  11.718   6.755  10.908  0.0544  0.3770  0.7113
    3ALA     HA   20  11.643   6.703  10.967 -1.4240  0.6323 -0.8477
    3ALA     CB   21  11.790   6.654  10.810 -0.0484 -0.1250  0.3265
    3ALA    HB1   22  11.848   6.589  10.876  0.9434 -0.4471 -0.8301
    3ALA    HB2   23  11.723   6.595  10.747 -3.0281  1.4427  1.8305
    3ALA    HB3   24  11.856   6.716  10.750  0.2204 -1.3733 -0.7148
    3ALA      C   25  11.815   6.823  11.005  0.0379 -1.5301 -0.4812
    3ALA      O   26  11.922   6.874  10.973 -0.3004  0.4402 -0.0398
    4ALA      N   27  11.774   6.833  11.134  0.2035  0.3411  0.3695
    4ALA      H   28  11.678   6.805  11.146 -0.4072  1.8130 -0.8495
    4ALA     CA   29  11.851   6.872  11.251 -0.2282 -0.2572 -0.0084
    4ALA     HA   30  11.781   6.893  11.332  1.7994  0.7861  1.5572
    4ALA     CB   31  11.931   6.751  11.312 -0.4633 -0.7765  0.4309
    4ALA    HB1   32  11.985   6.786  11.400 -3.0498  1.6113  1.2122
    4ALA    HB2   33  11.862   6.672  11.343 -3.4247  1.0066 -1.0578
    4ALA    HB3   34  11.995   6.714  11.231  0.7727  1.3099  0.3914
    4ALA      C   35  11.938   7.007  11.252  0.6936  0.4924  0.3386
    4ALA      O   36  12.009   7.018  11.354  0.7550 -0.0154 -0.0768
    5NME      N   37  11.922   7.091  11.155 -0.0614 -0.3717  0.2659
    5NME      H   38  11.879   7.046  11.075  1.6770 -0.7474 -0.5057
    5NME    CH3   39  11.989   7.222  11.152 -0.5250  0.2696  0.3222
    5NME   HH31   40  12.086   7.221  11.102 -0.2585  0.8196  0.8148
    5NME   HH32   41  11.936   7.297  11.094  0.9073  0.7352 -0.4729
    5NME   HH33   42  12.018   7.247  11.254  0.9777 -0.7445  0.1926
  20.91516  20.91516  20.91516
