Protein
   42
    1ACE   HH31    1   8.075  11.023   6.926 -2.0297  0.2745 -1.6841
    1ACE    CH3    2   8.068  11.130   6.942  0.2575  0.1774  0.6944
    1ACE   HH32    3   8.156  11.170   6.992  1.1456 -2.4261  1.3333
    1ACE   HH33    4   7.974  11.133   6.996 -0.4384 -0.2710 -0.4687
    1ACE      C    5   8.058  11.194   6.807  0.1491 -0.1603 -0.5114
    1ACE      O    6   8.081  11.126   6.708 -0.0344 -0.0178  0.1015
    2ALA      N    7   8.040  11.328   6.802  0.6508  0.1025 -0.5153
    2ALA      H    8   8.031  11.381   6.888 -0.5683  1.1418 -1.2545
    2ALA     CA    9   8.043  11.399   6.677  0.1348 -0.1742  0.3302
    2ALA     HA   10   8.093  11.337   6.603  0.0851  1.9238 -1.5454
    2ALA     CB   11   7.898  11.414   6.633 -0.1597 -0.9764 -0.1257
    2ALA    HB1   12   7.844  11.320   6.625 -1.2285 -0.5725  1.6502
    2ALA    HB2   13   7.860  11.483   6.709 -0.9397 -0.9424 -0.5408
    2ALA    HB3   14   7.900  11.462   6.535 -2.5887  1.5915  0.9278
    2ALA      C   15   8.107  11.536   6.695  0.1387 -0.1271 -0.5423
    2ALA      O   16   8.116  11.578   6.809  0.3726  0.6468  0.6750
    3ALA      N   17   8.148  11.611   6.589 -0.5141  0.0923 -0.1091
    3ALA      H   18   8.179  11.704   6.614 -0.2906 -0.0333  0.0798
    3ALA     CA   19   8.155  11.552   6.449 -0.2630 -0.5162  0.0154
    3ALA     HA   20   8.105  11.456   6.436  0.0144 -0.8271  1.1510
    3ALA     CB   21   8.083  11.651   6.352  0.3589  0.3856 -0.0538
    3ALA    HB1   22   8.129  11.749   6.345 -0.1558  0.5850 -0.7887
    3ALA    HB2   23   8.092  11.609   6.252 -5.1567 -0.0109 -0.6575
    3ALA    HB3   24   7.976  11.666   6.370  0.3923  0.7457 -0.1617
    3ALA      C   25   8.302  11.520   6.403 -0.2160  0.6784  0.3149
    3ALA      O   26   8.322  11.472   6.287 -0.1042 -0.2526 -0.0351
    4ALA      N   27   8.405  11.561   6.479 -0.1759 -0.3647  0.3781
    4ALA      H   28   8.379  11.607   6.565 -1.8650  1.3752 -0.9445
    4ALA     CA   29   8.548  11.536   6.448 -0.6969 -0.2960  0.9664
    4ALA     HA   30   8.548  11.461   6.368 -3.0900 -0.8826  1.4256
    4ALA     CB   31   8.613  11.673   6.412 -0.3263  0.4370  0.0477
    4ALA    HB1   32   8.544  11.721   6.343  0.0351 -0.9385 -1.3162
    4ALA    HB2   33   8.633  11.726   6.505  2.9863  1.5378 -1.1496
    4ALA    HB3   34   8.712  11.648   6.373 -0.9107  0.0316 -1.2047
    4ALA      C   35   8.626  11.462   6.560 -0.1480  1.1075 -0.0456
    4ALA      O   36   8.570  11.430   6.669  0.1454  0.2208  0.3055
    5NME      N   37   8.748  11.415   6.539 -0.6446  0.4183  0.1410
    5NME      H   38   8.784  11.432   6.447  1.6316 -2.9935  0.2000
    5NME    CH3   39   8.815  11.325   6.622  0.5770  0.5815 -0.5839
    5NME   HH31   40   8.777  11.223   6.618 -0.4536  0.8620  0.8268
    5NME   HH32   41   8.919  11.316   6.592  0.9324 -0.9366  0.9455
    5NME   HH33   42   8.800  11.338   6.729  1.8791  0.2217 -0.3422
  20.91516  20.91516  20.91516
