Protein
   42
    1ACE   HH31    1  11.434  13.515  10.394  2.0329  0.0618 -1.3253
    1ACE    CH3    2  11.356  13.512  10.318  0.7169 -0.2159 -0.0324
    1ACE   HH32    3  11.380  13.432  10.248  1.8360  0.7795 -0.8567
    1ACE   HH33    4  11.359  13.608  10.265 -0.9024  0.1446  0.4758
    1ACE      C    5  11.224  13.488  10.377  0.2239 -0.3993 -0.4644
    1ACE      O    6  11.211  13.458  10.495  0.0678  0.2973 -0.9120
    2ALA      N    7  11.120  13.505  10.297  0.2358  0.0508  0.1284
    2ALA      H    8  11.137  13.521  10.199  2.7050 -2.0424  0.1139
    2ALA     CA    9  10.978  13.521  10.336  0.3464 -0.9675  0.1597
    2ALA     HA   10  10.919  13.430  10.343 -0.2967 -0.7371 -1.9467
    2ALA     CB   11  10.965  13.620  10.457  0.4759  0.1986 -0.1545
    2ALA    HB1   12  11.009  13.716  10.429 -0.5059  1.4669  2.3677
    2ALA    HB2   13  10.864  13.642  10.490  0.2771 -2.2694  1.1818
    2ALA    HB3   14  11.003  13.570  10.547 -0.5264  0.1422  0.2441
    2ALA      C   15  10.908  13.596  10.218 -0.0242  0.3264  0.1917
    2ALA      O   16  10.966  13.663  10.137 -0.3979  0.3254 -0.0485
    3ALA      N   17  10.777  13.600  10.204  0.2550 -0.2760 -0.2394
    3ALA      H   18  10.760  13.659  10.123 -1.6487 -0.1003  0.2464
    3ALA     CA   19  10.650  13.537  10.261 -0.0098  0.1842  0.3507
    3ALA     HA   20  10.591  13.506  10.175  1.7406 -1.4483 -0.3345
    3ALA     CB   21  10.672  13.410  10.342  0.1318  0.0478  0.5149
    3ALA    HB1   22  10.735  13.343  10.284  0.6309  1.0501 -0.1152
    3ALA    HB2   23  10.729  13.428  10.433  1.3188 -4.3377  0.8742
    3ALA    HB3   24  10.578  13.361  10.370  0.0392  0.4367  0.9139
    3ALA      C   25  10.559  13.628  10.341 -0.2203  0.7321 -0.7427
    3ALA      O   26  10.445  13.585  10.369 -0.6056  0.2697  0.2041
    4ALA      N   27  10.599  13.754  10.368  0.8330  0.0369  0.3755
    4ALA      H   28  10.683  13.784  10.322  1.1968 -3.4232 -1.6681
    4ALA     CA   29  10.501  13.865  10.390 -0.1796 -0.3571  0.5165
    4ALA     HA   30  10.465  13.843  10.491  2.0151 -1.7687  1.0439
    4ALA     CB   31  10.572  14.001  10.389 -0.0823  0.1644  0.1320
    4ALA    HB1   32  10.653  13.999  10.461 -0.8065 -1.9140  0.9243
    4ALA    HB2   33  10.603  14.022  10.286  0.4931  0.8104  0.4208
    4ALA    HB3   34  10.501  14.081  10.413 -1.8404 -1.1350 -0.5171
    4ALA      C   35  10.387  13.862  10.281 -0.1493  0.0218  0.1191
    4ALA      O   36  10.416  13.848  10.163 -0.5774 -0.0856 -0.5984
    5NME      N   37  10.261  13.877  10.327 -1.0825  0.1703 -0.9716
    5NME      H   38  10.255  13.868  10.427  2.4449 -1.5393 -0.7731
    5NME    CH3   39  10.146  13.889  10.241 -0.1841  0.0837  0.2487
    5NME   HH31   40  10.061  13.838  10.287  0.5709 -0.8804  0.6119
    5NME   HH32   41  10.118  13.990  10.211 -1.8585 -0.5206 -0.3482
    5NME   HH33   42  10.162  13.832  10.149 -1.0329  1.0693 -0.5397
  20.91516  20.91516  20.91516
