Protein
   32
    1ACE   HH31    1  11.401   8.535  11.457  1.0073 -0.2975 -1.1234
    1ACE    CH3    2  11.397   8.611  11.535 -0.4027 -0.9467 -0.5165
    1ACE   HH32    3  11.494   8.608  11.586 -0.5325  0.7760 -0.1282
    1ACE   HH33    4  11.311   8.591  11.598 -0.8983  0.9100 -0.5745
    1ACE      C    5  11.388   8.757  11.485  0.2892 -0.0725 -0.7644
    1ACE      O    6  11.357   8.779  11.365 -0.0921  0.2100 -0.1761
    2ALA      N    7  11.414   8.854  11.578  0.0234  0.1753  0.3505
    2ALA      H    8  11.443   8.822  11.670  1.0383 -1.7017 -0.5827
    2ALA     CA    9  11.413   8.998  11.555 -0.6938 -0.9830 -0.2753
    2ALA     HA   10  11.326   9.013  11.492 -0.1412 -0.9134 -1.0379
    2ALA     CB   11  11.407   9.071  11.691  0.2245 -0.0470  0.4958
    2ALA    HB1   12  11.501   9.056  11.745 -0.3390 -1.3379  1.1675
    2ALA    HB2   13  11.390   9.178  11.681 -0.5774 -0.1535  0.6092
    2ALA    HB3   14  11.332   9.016  11.747  0.9973 -0.9230  0.6945
    2ALA      C   15  11.530   9.061  11.463 -0.0367  0.0044  0.3781
    2ALA      O   16  11.590   9.158  11.502 -0.2424  0.2174 -0.5117
    3ALA      N   17  11.565   8.992  11.354 -0.2529  0.0897  0.7355
    3ALA      H   18  11.509   8.910  11.336  1.5387 -1.0200 -0.0630
    3ALA     CA   19  11.692   9.001  11.272 -0.2871 -0.2286 -0.3346
    3ALA     HA   20  11.675   8.928  11.193 -1.8513  0.2256 -0.4622
    3ALA     CB   21  11.688   9.135  11.200 -0.0777  0.3972 -0.6314
    3ALA    HB1   22  11.605   9.144  11.129 -2.7742 -0.6503  2.1388
    3ALA    HB2   23  11.681   9.219  11.269 -1.3478  1.6095 -2.1504
    3ALA    HB3   24  11.782   9.153  11.147  1.3902  0.4754  1.8404
    3ALA      C   25  11.822   8.967  11.352 -0.2553 -0.1410 -0.5711
    3ALA      O   26  11.899   8.874  11.309 -0.0768 -0.2050  0.2075
    4NME      N   27  11.837   9.023  11.474 -0.1654  0.2410 -0.3898
    4NME      H   28  11.760   9.080  11.506 -0.8254 -0.4481 -0.7082
    4NME    CH3   29  11.948   8.996  11.569 -0.0981  0.1483 -0.1145
    4NME   HH31   30  11.988   8.894  11.567  1.5608  0.7175 -2.9463
    4NME   HH32   31  12.035   9.054  11.539  0.4443  1.3911  3.3356
    4NME   HH33   32  11.929   9.025  11.672 -3.7959 -0.8178 -0.3988
  20.99041  20.99041  20.99041
