Protein
   32
    1ACE   HH31    1   8.849  10.015  13.187 -0.6903 -0.7646 -1.6518
    1ACE    CH3    2   8.946  10.044  13.144 -0.1423  0.6319  0.3251
    1ACE   HH32    3   9.011   9.957  13.135  1.7262  1.8365  1.6093
    1ACE   HH33    4   8.994  10.110  13.216  2.1218  0.2064 -0.7179
    1ACE      C    5   8.932  10.121  13.016  0.6252 -1.5009 -0.2758
    1ACE      O    6   8.819  10.172  12.993 -0.1380 -0.1765  0.4678
    2ALA      N    7   9.044  10.146  12.945  0.4193 -0.0851 -0.0100
    2ALA      H    8   9.135  10.126  12.986  2.0834  2.0820 -2.3076
    2ALA     CA    9   9.056  10.223  12.819  0.2179 -0.4609 -0.2459
    2ALA     HA   10   8.951  10.231  12.793 -0.1707 -1.5718  0.9244
    2ALA     CB   11   9.123  10.356  12.845 -0.0825  0.3390 -0.2159
    2ALA    HB1   12   9.102  10.412  12.753  0.5257  1.5241  0.3426
    2ALA    HB2   13   9.078  10.403  12.932 -1.9876 -0.5697 -0.6660
    2ALA    HB3   14   9.230  10.345  12.861 -0.3871 -0.8601  1.2765
    2ALA      C   15   9.108  10.133  12.701 -1.0869  0.7769  0.3050
    2ALA      O   16   9.145  10.176  12.593  0.2616  0.4186 -0.6157
    3ALA      N   17   9.109   9.999  12.726  0.7893 -0.4831 -0.4831
    3ALA      H   18   9.092   9.963  12.819 -1.1864 -2.8117 -1.6222
    3ALA     CA   19   9.161   9.902  12.632  0.5555 -0.5555 -0.5143
    3ALA     HA   20   9.137   9.940  12.533  1.5282  0.2625 -0.4594
    3ALA     CB   21   9.311   9.885  12.648 -0.8794  0.2094 -0.1951
    3ALA    HB1   22   9.353   9.833  12.562  0.9952  1.8424 -0.3314
    3ALA    HB2   23   9.357   9.983  12.659  1.6623 -1.0631  1.5073
    3ALA    HB3   24   9.329   9.819  12.733 -3.1212 -2.4967 -1.6362
    3ALA      C   25   9.096   9.759  12.649 -0.3995  0.2325 -0.2387
    3ALA      O   26   9.145   9.650  12.616 -1.0643 -0.3781  0.0727
    4NME      N   27   8.978   9.761  12.703 -0.5384 -0.3395 -0.0737
    4NME      H   28   8.944   9.851  12.733 -0.4892  0.4788 -2.3012
    4NME    CH3   29   8.892   9.653  12.729  0.2532 -0.0124 -0.2057
    4NME   HH31   30   8.834   9.690  12.814 -0.6885  0.0658 -0.8504
    4NME   HH32   31   8.815   9.648  12.651  0.8852 -1.7968 -0.7491
    4NME   HH33   32   8.930   9.554  12.751 -2.0718 -0.6557  1.3134
  20.99041  20.99041  20.99041
