Protein
   22
    1ACE   HH31    1   2.410  10.062   6.757  1.1333  1.4261 -0.4020
    1ACE    CH3    2   2.494  10.012   6.709  0.1156 -0.4725 -0.2644
    1ACE   HH32    3   2.478   9.906   6.731  0.0942 -0.3873  0.1330
    1ACE   HH33    4   2.584  10.050   6.757 -0.9087  0.4437  1.0289
    1ACE      C    5   2.476  10.032   6.557 -0.0508 -0.4518 -0.3332
    1ACE      O    6   2.374   9.996   6.501 -0.3649  0.1279  0.4278
    2ALA      N    7   2.583  10.077   6.491  0.2572  0.5124 -0.4342
    2ALA      H    8   2.666  10.072   6.548 -0.3131 -1.4706  0.3160
    2ALA     CA    9   2.585  10.111   6.350 -0.1694  0.1253 -0.1204
    2ALA     HA   10   2.484  10.136   6.319 -0.4179 -1.5827 -0.8227
    2ALA     CB   11   2.669  10.236   6.330  0.0348  0.0427  0.6110
    2ALA    HB1   12   2.659  10.268   6.226 -1.6240 -0.1896  0.6820
    2ALA    HB2   13   2.617  10.315   6.385  0.2537  0.0438  0.8271
    2ALA    HB3   14   2.776  10.221   6.349  0.3797  0.5922 -0.8032
    2ALA      C   15   2.615   9.986   6.274  0.5073 -0.7326  0.4861
    2ALA      O   16   2.721   9.973   6.211  0.3199  0.1282  0.1461
    3NME      N   17   2.524   9.888   6.281  0.1495  0.8350  0.0845
    3NME      H   18   2.444   9.908   6.339  1.8063  0.9469  2.5073
    3NME    CH3   19   2.542   9.761   6.213  0.4999  0.1841 -0.0161
    3NME   HH31   20   2.565   9.788   6.110  1.4641  4.7309  1.1914
    3NME   HH32   21   2.625   9.712   6.264  0.9756  1.6038  0.6293
    3NME   HH33   22   2.459   9.692   6.228  0.3029  0.0934 -1.3218
  10.72160  10.72160  10.72160
