Protein
   42
    1ACE   HH31    1   9.830   7.090  12.328  0.5163 -3.0697 -2.0960
    1ACE    CH3    2   9.933   7.094  12.363 -0.0891  0.4785 -0.2297
    1ACE   HH32    3   9.952   7.010  12.430 -0.5647  1.1476  0.7548
    1ACE   HH33    4   9.954   7.185  12.419  0.5748  0.2084 -0.0155
    1ACE      C    5  10.031   7.093  12.245 -0.5433  0.3231 -0.1575
    1ACE      O    6  10.100   7.190  12.231  0.5100  0.2697 -0.5276
    2ALA      N    7  10.040   6.986  12.175 -0.3225  0.8645  0.3271
    2ALA      H    8   9.986   6.902  12.195 -1.1922  1.2475 -0.3027
    2ALA     CA    9  10.110   6.975  12.050 -0.1132 -0.0764 -0.3104
    2ALA     HA   10  10.168   7.066  12.037 -0.5765  0.2746  0.0530
    2ALA     CB   11  10.214   6.867  12.072  0.2110  0.5132 -0.0002
    2ALA    HB1   12  10.244   6.867  12.176  0.0987  0.6166  0.0327
    2ALA    HB2   13  10.176   6.767  12.052  1.0016  0.4403 -1.2627
    2ALA    HB3   14  10.304   6.882  12.012  1.9530  0.0072  2.3630
    2ALA      C   15   9.994   6.961  11.943 -0.0267  0.5435  0.8859
    2ALA      O   16   9.938   6.855  11.939  0.1288  0.3154 -0.0880
    3ALA      N   17   9.944   7.065  11.876 -1.1508  0.4117  0.6485
    3ALA      H   18   9.877   7.025  11.813 -2.2209  1.4680  1.0683
    3ALA     CA   19  10.012   7.186  11.834 -0.0548  0.2233  0.0821
    3ALA     HA   20  10.038   7.251  11.917  0.1965 -1.3437  1.2560
    3ALA     CB   21  10.143   7.146  11.769 -0.1872  0.0022  0.6870
    3ALA    HB1   22  10.123   7.062  11.702 -2.2843  2.3183 -1.8272
    3ALA    HB2   23  10.184   7.226  11.707 -2.1881  1.2363  0.8173
    3ALA    HB3   24  10.223   7.116  11.836  1.3281  1.7735 -0.2413
    3ALA      C   25   9.927   7.267  11.728  0.4683  0.5263 -0.2402
    3ALA      O   26   9.843   7.217  11.659  0.0164  0.2344 -0.2570
    4ALA      N   27   9.962   7.399  11.719  0.1137  0.0083  0.6628
    4ALA      H   28  10.026   7.429  11.791 -0.8773 -0.5124  1.7946
    4ALA     CA   29   9.906   7.509  11.639  0.0838  0.5451 -0.1151
    4ALA     HA   30   9.807   7.470  11.614 -0.7066  1.0563  1.9495
    4ALA     CB   31   9.889   7.636  11.729  0.4083 -0.5533  0.5462
    4ALA    HB1   32   9.982   7.674  11.771 -0.0951  0.5771  0.6919
    4ALA    HB2   33   9.846   7.715  11.667  2.1324  0.8236  1.0346
    4ALA    HB3   34   9.824   7.604  11.810  0.7816  0.3166  1.2085
    4ALA      C   35   9.994   7.535  11.517 -0.6671  0.2936  0.8362
    4ALA      O   36  10.053   7.643  11.505  0.2708 -0.1006 -0.1560
    5NME      N   37   9.994   7.429  11.429 -0.2488  0.4321  0.0234
    5NME      H   38   9.947   7.344  11.459  2.4331 -0.5125  2.0549
    5NME    CH3   39  10.064   7.431  11.301  0.3404  0.5313  0.3775
    5NME   HH31   40  10.014   7.391  11.213  0.4210  0.8651  0.1748
    5NME   HH32   41  10.089   7.536  11.287 -2.4803  1.0094 -2.1689
    5NME   HH33   42  10.156   7.376  11.317  0.3190  0.6698  1.0410
  20.91516  20.91516  20.91516
