Title
  129
    1AIB    CAY    1  20.864  20.729  21.796  0.2686  0.4361  0.5208
    1AIB    HY1    2  20.927  20.819  21.777 -2.7412  2.6491  0.1549
    1AIB    HY2    3  20.893  20.657  21.875 -0.1997  0.3723  0.6397
    1AIB    HY3    4  20.761  20.760  21.825  0.4407  3.1832 -1.3877
    1AIB     CY    5  20.862  20.652  21.665 -0.4080 -0.1075 -0.6479
    1AIB     OY    6  20.918  20.707  21.572  0.5995  0.3347 -0.8790
    1AIB      N    7  20.789  20.534  21.658  0.0849 -0.0513  0.2518
    1AIB     HN    8  20.750  20.491  21.739  0.1909  0.4468  0.5764
    1AIB     CA    9  20.788  20.440  21.551 -0.2084  0.8970  0.0884
    1AIB    CB1   10  20.664  20.350  21.572  0.1839 -0.2780 -0.5182
    1AIB   HB11   11  20.570  20.407  21.588  1.0670  0.7783  1.4077
    1AIB   HB12   12  20.679  20.289  21.663 -0.8809  1.6317  1.0272
    1AIB   HB13   13  20.643  20.284  21.485 -1.6399  2.0546 -1.9814
    1AIB    CB2   14  20.922  20.357  21.562 -0.3211 -0.3721 -0.4465
    1AIB   HB21   15  20.921  20.289  21.650 -0.6778  1.5750  1.1222
    1AIB   HB22   16  21.015  20.417  21.563  0.8865 -2.1652 -1.5888
    1AIB   HB23   17  20.943  20.292  21.475  1.7386  1.6184 -1.5491
    1AIB      C   18  20.778  20.504  21.414  0.6657 -0.6125  0.2297
    1AIB      O   19  20.836  20.471  21.309  0.2066  0.3434  0.3649
    2AIB      N   20  20.686  20.606  21.405 -0.7798  0.4978  0.2008
    2AIB     HN   21  20.654  20.634  21.495 -0.0798  1.3731  0.1791
    2AIB     CA   22  20.642  20.658  21.276 -0.6976 -0.0783  0.5319
    2AIB    CB1   23  20.535  20.752  21.322 -0.9532  0.2535  0.4484
    2AIB   HB11   24  20.470  20.702  21.397 -1.5810 -0.4140 -0.5236
    2AIB   HB12   25  20.468  20.784  21.239 -2.9724 -1.4988  1.2888
    2AIB   HB13   26  20.586  20.842  21.362 -0.3784  0.6681 -1.1586
    2AIB    CB2   27  20.571  20.554  21.181  0.0225  0.3297  0.5663
    2AIB   HB21   28  20.540  20.615  21.093  0.6409  1.8376  1.3569
    2AIB   HB22   29  20.476  20.518  21.225 -0.9145 -0.9410 -2.3148
    2AIB   HB23   30  20.626  20.465  21.146  0.6027 -0.0922  2.4342
    2AIB      C   31  20.760  20.733  21.194 -0.6028  0.0492 -0.1032
    2AIB      O   32  20.764  20.745  21.072 -0.2787  0.2040 -0.1301
    3AIB      N   33  20.854  20.791  21.279 -0.0244 -0.1158  0.2028
    3AIB     HN   34  20.846  20.756  21.372  0.3227 -1.1803 -0.1525
    3AIB     CA   35  20.962  20.875  21.246 -0.2886 -0.7357 -0.0955
    3AIB    CB1   36  21.030  20.934  21.373 -0.3973 -0.6198  0.0403
    3AIB   HB11   37  21.124  20.989  21.349 -2.2572  2.1677 -1.4728
    3AIB   HB12   38  21.063  20.864  21.452  1.1988  0.7314  0.6205
    3AIB   HB13   39  20.968  21.015  21.417  0.9424  0.9988 -0.9390
    3AIB    CB2   40  20.922  20.997  21.159 -0.3004 -0.7666 -0.0670
    3AIB   HB21   41  21.008  21.055  21.121 -0.4831  0.3636  1.1382
    3AIB   HB22   42  20.860  21.065  21.222 -0.0894  1.4441 -2.0645
    3AIB   HB23   43  20.851  20.967  21.079  0.6486  0.2049 -1.3096
    3AIB      C   44  21.064  20.780  21.178  0.1436 -0.1869 -0.2712
    3AIB      O   45  21.118  20.809  21.074  0.0941 -0.0864  0.5592
    4AIB      N   46  21.089  20.660  21.245 -0.1806  0.4698  0.2007
    4AIB     HN   47  21.040  20.625  21.324  1.7211 -2.2858  0.2940
    4AIB     CA   48  21.198  20.573  21.207 -0.6705  0.5744 -1.4205
    4AIB    CB1   49  21.183  20.449  21.302  0.0752 -0.4912 -0.0008
    4AIB   HB11   50  21.227  20.477  21.400  1.4216 -3.7432  0.4201
    4AIB   HB12   51  21.244  20.369  21.255 -0.3818  0.2398 -1.9709
    4AIB   HB13   52  21.083  20.404  21.313 -0.4538  0.7351  0.3233
    4AIB    CB2   53  21.339  20.631  21.235 -0.2253  0.3214  0.0669
    4AIB   HB21   54  21.423  20.568  21.200 -0.7644 -1.4334  1.7565
    4AIB   HB22   55  21.356  20.653  21.342  1.8791  0.9873 -0.3604
    4AIB   HB23   56  21.357  20.727  21.181  2.2375 -0.4860 -0.6645
    4AIB      C   57  21.172  20.520  21.065 -0.1434 -0.2474  0.8344
    4AIB      O   58  21.255  20.527  20.977 -0.1289 -0.6520 -0.0759
    5AIB      N   59  21.052  20.473  21.034  0.6996  0.2244 -0.3585
    5AIB     HN   60  20.980  20.484  21.102 -1.2751 -0.2512 -2.2917
    5AIB     CA   61  21.017  20.409  20.907 -0.7513  0.7977  0.7361
    5AIB    CB1   62  20.862  20.381  20.894  1.4313 -0.2416 -0.0397
    5AIB   HB11   63  20.797  20.457  20.943  2.8940  0.2342  1.2600
    5AIB   HB12   64  20.846  20.293  20.960 -0.8077  1.9821  2.6474
    5AIB   HB13   65  20.828  20.365  20.790 -0.1751 -0.1898  0.4523
    5AIB    CB2   66  21.096  20.281  20.904  0.3113  0.4533  0.1729
    5AIB   HB21   67  21.051  20.201  20.966  3.2186 -0.6770  1.0016
    5AIB   HB22   68  21.200  20.303  20.937  1.4059  0.3311 -2.8687
    5AIB   HB23   69  21.102  20.252  20.797  1.2203  0.7501  0.1348
    5AIB      C   70  21.034  20.510  20.788  0.5885  0.5236 -0.4361
    5AIB      O   71  21.062  20.482  20.672 -0.0640 -0.0202  0.2893
    6AIB      N   72  21.000  20.637  20.817  0.6799  0.3254  0.3605
    6AIB     HN   73  20.966  20.670  20.905 -0.9799  0.1151 -0.1706
    6AIB     CA   74  20.978  20.744  20.721 -1.5821  0.1063  0.8876
    6AIB    CB1   75  20.908  20.858  20.791 -0.5704  0.1726 -0.3715
    6AIB   HB11   76  20.810  20.823  20.829 -0.1007 -0.2452  0.4721
    6AIB   HB12   77  20.882  20.943  20.725 -0.7662  0.5148  0.1276
    6AIB   HB13   78  20.966  20.895  20.878 -2.2121 -2.7381  2.1580
    6AIB    CB2   79  20.901  20.710  20.594  0.6083  0.9663  0.0319
    6AIB   HB21   80  20.796  20.688  20.621  0.8810 -0.2204  0.2117
    6AIB   HB22   81  20.950  20.630  20.534 -1.3749  1.4243 -2.3134
    6AIB   HB23   82  20.909  20.792  20.520  0.0885 -0.5193 -1.7381
    6AIB      C   83  21.124  20.791  20.679  0.5665  0.7232 -0.8821
    6AIB      O   84  21.163  20.793  20.561 -0.6230  0.4004 -0.5178
    7AIB      N   85  21.211  20.811  20.783  0.0369  0.5767  0.0372
    7AIB     HN   86  21.193  20.775  20.874  0.2785 -2.0225 -0.8589
    7AIB     CA   87  21.344  20.850  20.768  0.0143  0.4790 -0.3926
    7AIB    CB1   88  21.399  20.874  20.914  0.1528 -0.0276 -0.7237
    7AIB   HB11   89  21.391  20.773  20.961  1.4682  0.5941  0.9233
    7AIB   HB12   90  21.337  20.946  20.971 -0.1153 -1.1471  0.4484
    7AIB   HB13   91  21.503  20.911  20.908 -0.4078  1.5453 -1.3850
    7AIB    CB2   92  21.351  20.993  20.705 -0.6620 -0.3205  0.2786
    7AIB   HB21   93  21.291  21.064  20.766 -0.5039  1.1398 -1.2181
    7AIB   HB22   94  21.323  21.001  20.598  0.9245  3.3984 -0.0384
    7AIB   HB23   95  21.457  21.023  20.727 -1.0353  0.1086  1.6463
    7AIB      C   96  21.432  20.754  20.692 -0.5517 -0.4278  0.1516
    7AIB      O   97  21.505  20.798  20.606  0.6670  0.3667 -0.1363
    8AIB      N   98  21.429  20.625  20.720  0.1978 -0.1091  0.8256
    8AIB     HN   99  21.372  20.586  20.793 -0.5930  1.2829  0.9693
    8AIB     CA  100  21.512  20.515  20.668 -0.0946 -0.3604  0.5502
    8AIB    CB1  101  21.458  20.383  20.724 -0.2386 -0.3553 -0.0616
    8AIB   HB11  102  21.354  20.365  20.688  0.0261  0.0756 -1.0778
    8AIB   HB12  103  21.461  20.393  20.835 -0.4315  3.6457 -0.2725
    8AIB   HB13  104  21.514  20.294  20.690  0.2123 -0.0329 -0.1715
    8AIB    CB2  105  21.658  20.539  20.716 -0.0259  0.3745 -0.4069
    8AIB   HB21  106  21.647  20.527  20.826 -1.0209  0.3212 -0.4994
    8AIB   HB22  107  21.698  20.638  20.686  0.8080  0.9292  2.1932
    8AIB   HB23  108  21.730  20.465  20.675 -0.9902 -0.0457 -1.3521
    8AIB      C  109  21.492  20.508  20.518 -0.1637  0.0330  0.5639
    8AIB      O  110  21.583  20.482  20.439 -0.3548  0.0044  0.5984
    9AIB      N  111  21.359  20.522  20.472 -0.0526 -0.8634  0.1722
    9AIB     HN  112  21.278  20.534  20.528 -0.4152 -0.0730 -0.4941
    9AIB     CA  113  21.317  20.525  20.335 -0.3839  0.9444  0.8342
    9AIB    CB1  114  21.165  20.534  20.343 -0.0891  0.0424 -0.1350
    9AIB   HB11  115  21.129  20.639  20.352 -0.1542 -0.0021  0.1197
    9AIB   HB12  116  21.117  20.474  20.423 -0.3923  0.8327  0.2883
    9AIB   HB13  117  21.117  20.499  20.249 -1.1330 -1.3547  0.8812
    9AIB    CB2  118  21.350  20.393  20.260 -0.1508 -1.0273  0.1212
    9AIB   HB21  119  21.451  20.383  20.214 -0.8019 -2.7369 -1.0940
    9AIB   HB22  120  21.274  20.382  20.179  0.6649  0.4122 -0.8962
    9AIB   HB23  121  21.348  20.310  20.333 -2.1580 -1.4280 -0.3332
    9AIB      C  122  21.374  20.643  20.251  0.3993 -0.0258  0.2942
    9AIB      O  123  21.404  20.630  20.134  0.5777  0.0214 -0.3336
    9AIB     NT  124  21.394  20.758  20.310 -0.4024 -0.3673 -0.7109
    9AIB    HNT  125  21.380  20.773  20.407  2.5357 -1.5876  0.0280
    9AIB    CAT  126  21.469  20.867  20.250  0.2280  0.3022 -0.4760
    9AIB    HT1  127  21.493  20.952  20.317 -0.1356  0.3162 -0.3502
    9AIB    HT2  128  21.424  20.900  20.154 -0.0114 -2.3737 -1.3753
    9AIB    HT3  129  21.564  20.825  20.212 -0.2770 -0.4894 -0.8997
  42.09246  42.09246  42.09246
