Protein
   42
    1ACE   HH31    1  10.308   9.580  12.512  0.0529 -1.2622 -1.1001
    1ACE    CH3    2  10.372   9.628  12.439  0.2405 -0.6423 -0.5441
    1ACE   HH32    3  10.468   9.610  12.485  0.6347  0.1794 -1.0213
    1ACE   HH33    4  10.349   9.733  12.420 -1.2349 -0.6646  0.8604
    1ACE      C    5  10.369   9.545  12.318 -0.0861  0.0854  0.4064
    1ACE      O    6  10.310   9.440  12.325  0.1133 -0.0718  0.1732
    2ALA      N    7  10.423   9.596  12.210 -0.1791 -0.1715 -0.3380
    2ALA      H    8  10.449   9.693  12.223 -0.8911  0.0098 -0.1998
    2ALA     CA    9  10.426   9.535  12.077 -0.8241  0.3276 -0.2699
    2ALA     HA   10  10.464   9.609  12.007  1.7580 -0.3446  0.3118
    2ALA     CB   11  10.531   9.423  12.077 -0.5953 -0.0330 -0.2940
    2ALA    HB1   12  10.628   9.455  12.115 -0.9897  0.3109  0.4448
    2ALA    HB2   13  10.510   9.341  12.147  3.2265  1.5211  3.0508
    2ALA    HB3   14  10.545   9.379  11.978 -1.0177 -1.2460  0.1589
    2ALA      C   15  10.299   9.495  12.017  0.4722 -0.0332  0.2742
    2ALA      O   16  10.263   9.540  11.908 -0.7506 -0.1651  0.6690
    3ALA      N   17  10.210   9.420  12.083  1.0033  0.1931 -0.2834
    3ALA      H   18  10.243   9.387  12.172 -1.5897  0.7310  0.9981
    3ALA     CA   19  10.061   9.412  12.055 -0.1013 -0.2543 -0.1767
    3ALA     HA   20  10.038   9.387  11.951  0.9458 -0.2749 -0.4155
    3ALA     CB   21  10.026   9.282  12.131 -0.2245  0.4542 -0.4255
    3ALA    HB1   22   9.917   9.283  12.138 -0.1765  0.9491  0.4900
    3ALA    HB2   23  10.053   9.196  12.069  0.0490  1.2662 -1.4526
    3ALA    HB3   24  10.076   9.271  12.227 -0.7308  0.2568 -0.1835
    3ALA      C   25   9.990   9.543  12.105 -0.1473 -0.2554 -0.8813
    3ALA      O   26   9.886   9.581  12.049  0.4393  0.0214 -0.0515
    4ALA      N   27  10.042   9.609  12.210  0.3534 -0.4829  0.1487
    4ALA      H   28  10.126   9.572  12.254  1.1204  0.5531 -0.3731
    4ALA     CA   29   9.981   9.730  12.272 -0.5570 -0.5464 -0.1861
    4ALA     HA   30   9.885   9.749  12.225 -0.1084 -1.8535 -1.7046
    4ALA     CB   31   9.953   9.683  12.413 -0.2999  0.1171 -0.9294
    4ALA    HB1   32   9.884   9.599  12.424 -0.5297  0.2229 -1.5086
    4ALA    HB2   33  10.042   9.645  12.463 -2.1055 -0.2081  2.3424
    4ALA    HB3   34   9.909   9.764  12.473 -1.0245 -1.6160  0.9901
    4ALA      C   35  10.071   9.851  12.262  0.0114  0.5835  0.1498
    4ALA      O   36  10.196   9.842  12.274 -0.0318 -0.0933 -0.5655
    5NME      N   37  10.010   9.969  12.249  0.3487  0.2416  0.0313
    5NME      H   38   9.909   9.972  12.250  0.3486  1.9068 -1.0138
    5NME    CH3   39  10.080  10.097  12.269 -0.8166 -0.2318 -0.6258
    5NME   HH31   40  10.054  10.172  12.195 -0.1445  0.7541  0.0989
    5NME   HH32   41  10.064  10.137  12.369  1.1805 -2.5561  0.7518
    5NME   HH33   42  10.188  10.080  12.266 -1.1202 -3.0069  0.6961
  20.91516  20.91516  20.91516
