Protein
   32
    1ACE   HH31    1  11.052   8.815  11.369 -0.1055 -0.1671  1.6935
    1ACE    CH3    2  11.152   8.780  11.398  0.7177  0.8729  0.2022
    1ACE   HH32    3  11.229   8.847  11.359  2.9794 -2.1674 -0.9143
    1ACE   HH33    4  11.172   8.682  11.356  0.0451  0.9419 -0.3078
    1ACE      C    5  11.175   8.776  11.545 -0.4241 -0.2833  0.0478
    1ACE      O    6  11.083   8.804  11.624 -0.1866 -0.3327  0.4100
    2ALA      N    7  11.294   8.734  11.587 -0.0438 -0.0543  0.3000
    2ALA      H    8  11.368   8.738  11.519 -0.2866  2.1139  0.0938
    2ALA     CA    9  11.335   8.699  11.723  1.1121  0.1653  0.0015
    2ALA     HA   10  11.263   8.622  11.750  0.8935  0.3394 -0.0855
    2ALA     CB   11  11.461   8.609  11.727 -0.5863  0.1101  0.1947
    2ALA    HB1   12  11.541   8.668  11.683 -1.5338 -0.2029 -2.0779
    2ALA    HB2   13  11.478   8.594  11.833 -1.2054  2.6239  0.7156
    2ALA    HB3   14  11.441   8.515  11.676 -3.2091 -0.4459  2.0754
    2ALA      C   15  11.344   8.820  11.813  0.2152 -0.2083  0.4906
    2ALA      O   16  11.285   8.821  11.921  0.0712  0.1725 -0.5572
    3ALA      N   17  11.427   8.916  11.775 -0.2532  0.4298  0.1510
    3ALA      H   18  11.463   8.906  11.681 -0.9208  0.3747 -0.1080
    3ALA     CA   19  11.437   9.043  11.832 -0.3425 -0.3025 -0.7691
    3ALA     HA   20  11.453   9.039  11.940 -1.7893  0.0423 -0.5223
    3ALA     CB   21  11.552   9.114  11.766 -1.0150 -0.0277  0.2866
    3ALA    HB1   22  11.547   9.222  11.777 -0.0387 -0.0117  0.6098
    3ALA    HB2   23  11.643   9.075  11.812 -0.3951 -0.2442 -1.1069
    3ALA    HB3   24  11.543   9.098  11.659 -1.2027  3.4006 -0.3012
    3ALA      C   25  11.312   9.132  11.826  0.4370 -0.2521 -0.2131
    3ALA      O   26  11.307   9.244  11.775  0.4158 -0.0565 -0.1198
    4NME      N   27  11.200   9.085  11.880 -0.0869 -0.5903 -0.5579
    4NME      H   28  11.209   9.000  11.935 -1.6806  0.1876  1.0515
    4NME    CH3   29  11.065   9.129  11.860  0.2932 -0.3066  0.2351
    4NME   HH31   30  11.067   9.231  11.822  1.1344 -0.6805 -0.8068
    4NME   HH32   31  11.029   9.061  11.782 -1.2708  2.0948 -1.2501
    4NME   HH33   32  11.008   9.121  11.952  1.7556  0.1696  1.2160
  20.99041  20.99041  20.99041
