Protein
   42
    1ACE   HH31    1  14.651   7.670   2.734  0.2929 -1.5056 -0.7146
    1ACE    CH3    2  14.568   7.628   2.790  0.5135 -0.8372  0.1432
    1ACE   HH32    3  14.604   7.526   2.799  1.4210 -0.3952  2.1013
    1ACE   HH33    4  14.473   7.643   2.738 -0.6634 -0.7670  2.1847
    1ACE      C    5  14.560   7.699   2.925  0.1605  0.2763  1.0233
    1ACE      O    6  14.565   7.638   3.030  0.0319 -0.0824  0.0808
    2ALA      N    7  14.537   7.830   2.926  0.3144 -0.3743  0.0455
    2ALA      H    8  14.504   7.874   2.842  1.6723  1.6142  0.4976
    2ALA     CA    9  14.523   7.914   3.039  0.6758 -0.2264 -0.2557
    2ALA     HA   10  14.469   7.865   3.120 -1.6532  2.3458 -0.0812
    2ALA     CB   11  14.661   7.950   3.082 -0.6723  0.1863  0.2833
    2ALA    HB1   12  14.660   7.993   3.182  1.3503 -1.6857  1.2220
    2ALA    HB2   13  14.717   7.856   3.082 -0.3428  0.3590  1.6713
    2ALA    HB3   14  14.719   8.009   3.011 -2.0042  1.5383  0.2765
    2ALA      C   15  14.438   8.044   3.001 -0.1923  0.1930  0.4653
    2ALA      O   16  14.401   8.057   2.884  0.1609 -0.1092 -0.4716
    3ALA      N   17  14.402   8.140   3.088  0.4588  0.5513 -0.3715
    3ALA      H   18  14.359   8.214   3.033  0.8256  0.0508 -1.3504
    3ALA     CA   19  14.406   8.172   3.234 -0.4359 -0.2457 -0.2464
    3ALA     HA   20  14.489   8.240   3.252  1.5539 -2.5305 -0.2242
    3ALA     CB   21  14.275   8.238   3.271 -0.0625  0.5225 -0.4190
    3ALA    HB1   22  14.208   8.155   3.288  1.4961 -0.7620 -0.2723
    3ALA    HB2   23  14.290   8.294   3.363  1.4898 -2.7217  1.4903
    3ALA    HB3   24  14.243   8.305   3.192  0.7680  2.5621  0.8831
    3ALA      C   25  14.451   8.066   3.338 -0.3808  0.5221 -0.9462
    3ALA      O   26  14.417   7.948   3.320  0.5483  0.1006 -0.1974
    4ALA      N   27  14.516   8.105   3.450 -0.2935 -0.7317  0.5126
    4ALA      H   28  14.505   8.205   3.459  0.7044 -0.6633  1.3173
    4ALA     CA   29  14.565   8.032   3.567 -0.4448 -0.0147 -0.0510
    4ALA     HA   30  14.609   8.099   3.641  0.5750 -0.4516 -0.2478
    4ALA     CB   31  14.453   7.962   3.649  0.2711 -0.0344  0.7203
    4ALA    HB1   32  14.364   8.024   3.639 -0.0558 -0.5836  0.0405
    4ALA    HB2   33  14.429   7.864   3.606  0.9883  0.8014 -1.7564
    4ALA    HB3   34  14.482   7.945   3.752  0.3316  1.7398  1.0209
    4ALA      C   35  14.679   7.929   3.534  0.7862 -0.3496  0.6654
    4ALA      O   36  14.779   7.932   3.604 -0.1820 -0.2069  0.3357
    5NME      N   37  14.666   7.846   3.434 -0.1892 -0.0793 -0.4239
    5NME      H   38  14.577   7.855   3.387 -0.3634 -1.7236 -0.4385
    5NME    CH3   39  14.775   7.772   3.358 -0.2134 -0.1286  0.3215
    5NME   HH31   40  14.742   7.672   3.330 -2.2113  0.2477  1.1439
    5NME   HH32   41  14.804   7.834   3.273  1.7744 -2.4673 -0.8093
    5NME   HH33   42  14.862   7.768   3.424 -0.2708 -1.6621  0.3350
  20.91516  20.91516  20.91516
