Protein
   42
    1ACE   HH31    1   9.195  15.025  12.787 -0.8875 -1.0238  2.4478
    1ACE    CH3    2   9.105  15.083  12.774 -0.2397 -0.3569  0.7139
    1ACE   HH32    3   9.119  15.177  12.827  0.9118 -0.4593  0.6083
    1ACE   HH33    4   9.027  15.017  12.812 -0.5960 -1.0923 -1.1949
    1ACE      C    5   9.077  15.112  12.623  0.2805  0.2346  0.2929
    1ACE      O    6   8.960  15.105  12.585 -0.3340  0.5682  0.3216
    2ALA      N    7   9.183  15.139  12.547 -0.5308  0.1109 -0.3664
    2ALA      H    8   9.273  15.126  12.590 -1.5280 -1.5117  1.3850
    2ALA     CA    9   9.196  15.167  12.403 -0.5731 -0.3155  0.5733
    2ALA     HA   10   9.234  15.268  12.386 -0.3563 -0.4698  0.1277
    2ALA     CB   11   9.311  15.072  12.355  0.5889  0.1055  0.1206
    2ALA    HB1   12   9.326  15.088  12.248  1.5974  0.9374  0.3540
    2ALA    HB2   13   9.407  15.099  12.400  0.4743 -0.8570  0.9509
    2ALA    HB3   14   9.287  14.968  12.373  0.8456 -0.0568 -0.4429
    2ALA      C   15   9.071  15.146  12.307 -0.2617 -0.1937  0.7916
    2ALA      O   16   9.040  15.033  12.276  0.0591 -0.0797 -0.5883
    3ALA      N   17   9.014  15.252  12.251  0.6384  0.2320  0.2210
    3ALA      H   18   8.938  15.226  12.190  0.7926  1.5550 -0.5758
    3ALA     CA   19   9.034  15.395  12.287 -0.3427 -0.1938  0.0489
    3ALA     HA   20   9.134  15.419  12.253 -0.2681  1.1110  1.1542
    3ALA     CB   21   8.930  15.474  12.209 -0.1630  0.3871  0.0907
    3ALA    HB1   22   8.903  15.423  12.116 -1.5269  0.4223  0.4401
    3ALA    HB2   23   8.837  15.485  12.264 -0.5941  0.3361 -0.6180
    3ALA    HB3   24   8.955  15.580  12.206 -0.6952  0.6101  2.2227
    3ALA      C   25   9.026  15.431  12.431 -0.4081 -0.0410  0.8392
    3ALA      O   26   9.124  15.487  12.483  0.4023  0.5296 -0.3678
    4ALA      N   27   8.912  15.386  12.493  0.6562 -0.0644 -0.8494
    4ALA      H   28   8.852  15.320  12.446  0.5484 -0.0898 -0.6763
    4ALA     CA   29   8.882  15.404  12.633 -0.7241  0.1125  0.0969
    4ALA     HA   30   8.946  15.340  12.693  1.3246  1.9291  0.0174
    4ALA     CB   31   8.905  15.547  12.684  0.5013 -0.5862 -0.3547
    4ALA    HB1   32   8.832  15.610  12.632 -0.1358 -1.2690 -0.3017
    4ALA    HB2   33   8.879  15.553  12.790  0.7851 -1.6438 -0.2198
    4ALA    HB3   34   9.009  15.579  12.673  1.1786 -2.0190  1.4463
    4ALA      C   35   8.734  15.368  12.635  0.3457 -0.5301  0.2242
    4ALA      O   36   8.655  15.437  12.571  0.1431  0.0050  0.3766
    5NME      N   37   8.700  15.248  12.686  0.1433  0.3145 -0.7365
    5NME      H   38   8.776  15.190  12.718 -0.6505 -0.7999 -0.7923
    5NME    CH3   39   8.564  15.205  12.724 -0.3505 -0.1371  0.6083
    5NME   HH31   40   8.514  15.294  12.760  1.0943  1.7553 -1.6463
    5NME   HH32   41   8.513  15.163  12.637  0.5425  0.7454 -0.3769
    5NME   HH33   42   8.579  15.124  12.795 -4.2339 -2.2171 -0.6728
  20.91516  20.91516  20.91516
