Title
  129
    1AIB    CAY    1  21.133  20.647  21.209 -0.4026  0.0513 -0.0777
    1AIB    HY1    2  21.123  20.559  21.142 -0.4259  0.6427 -0.8688
    1AIB    HY2    3  21.154  20.733  21.142  1.7137 -0.4288 -0.1239
    1AIB    HY3    4  21.039  20.664  21.266 -0.6420  0.3859 -0.5673
    1AIB     CY    5  21.245  20.622  21.301 -0.0210  0.7554 -0.0609
    1AIB     OY    6  21.322  20.707  21.332 -0.3221 -0.4613 -0.4062
    1AIB      N    7  21.252  20.497  21.355  0.6737 -0.2646  0.1054
    1AIB     HN    8  21.175  20.436  21.341  2.2223 -2.0336 -1.0019
    1AIB     CA    9  21.357  20.444  21.440 -0.3139 -0.2322  0.0676
    1AIB    CB1   10  21.325  20.292  21.446  0.5520 -0.1197 -0.4968
    1AIB   HB11   11  21.321  20.245  21.345 -1.0866  0.2183 -0.6140
    1AIB   HB12   12  21.228  20.283  21.499 -0.2355  0.6706 -1.7460
    1AIB   HB13   13  21.403  20.239  21.504  0.3967  0.4617  0.2620
    1AIB    CB2   14  21.343  20.504  21.585 -0.1427 -0.8209 -0.2970
    1AIB   HB21   15  21.407  20.450  21.658 -0.1633  0.5288  0.7625
    1AIB   HB22   16  21.236  20.503  21.614  0.3586  1.8649  2.1119
    1AIB   HB23   17  21.381  20.608  21.591  0.2080 -1.0286  1.7809
    1AIB      C   18  21.502  20.464  21.391  0.0708 -0.4004 -0.5481
    1AIB      O   19  21.592  20.473  21.474 -0.5442 -0.1724 -0.3393
    2AIB      N   20  21.524  20.471  21.259  0.1971 -0.3187 -0.0463
    2AIB     HN   21  21.442  20.458  21.204 -0.4023  0.3728  0.6658
    2AIB     CA   22  21.647  20.496  21.189 -0.0542  0.4290 -0.0226
    2AIB    CB1   23  21.615  20.506  21.036  0.8739  0.2031  0.6449
    2AIB   HB11   24  21.561  20.601  21.017  1.9571  0.9341  1.1037
    2AIB   HB12   25  21.555  20.417  21.007 -1.2152  1.4910  0.7410
    2AIB   HB13   26  21.699  20.508  20.963 -1.2790 -1.0962 -2.0298
    2AIB    CB2   27  21.737  20.377  21.206 -0.2088  0.8967  0.0090
    2AIB   HB21   28  21.741  20.357  21.315 -0.6219  0.4678 -0.0530
    2AIB   HB22   29  21.840  20.391  21.167 -0.1509 -0.8044 -0.5579
    2AIB   HB23   30  21.687  20.286  21.166 -0.1361  0.2562  1.3152
    2AIB      C   31  21.715  20.629  21.233 -0.2384  0.3646  0.2739
    2AIB      O   32  21.838  20.634  21.248  0.9416 -0.5299  0.6881
    3AIB      N   33  21.632  20.728  21.257  0.3024 -0.3485 -0.9012
    3AIB     HN   34  21.533  20.717  21.253 -0.1047  2.6286 -1.0279
    3AIB     CA   35  21.670  20.862  21.303  0.0233  0.2363  0.5052
    3AIB    CB1   36  21.541  20.939  21.326  0.0650  0.1031 -0.4750
    3AIB   HB11   37  21.471  20.885  21.392 -1.3409 -1.1210 -2.8410
    3AIB   HB12   38  21.479  20.965  21.237  0.5197 -0.0168 -0.8358
    3AIB   HB13   39  21.563  21.038  21.371 -0.0108 -0.1095  0.0473
    3AIB    CB2   40  21.750  20.938  21.184  0.5863 -0.3810 -0.8148
    3AIB   HB21   41  21.742  21.048  21.197 -2.3161 -0.2233 -3.0375
    3AIB   HB22   42  21.698  20.918  21.088  0.8696 -3.6680 -0.4080
    3AIB   HB23   43  21.851  20.893  21.169  1.3722  0.6052  1.0869
    3AIB      C   44  21.749  20.857  21.433 -0.0068  0.3030 -0.2714
    3AIB      O   45  21.857  20.910  21.447 -0.1682  0.0476 -0.0573
    4AIB      N   46  21.685  20.794  21.540  0.0334  0.9908 -0.0961
    4AIB     HN   47  21.600  20.745  21.522  0.3696  1.1035 -2.1872
    4AIB     CA   48  21.716  20.807  21.678 -0.1791  0.2928 -0.0815
    4AIB    CB1   49  21.616  20.737  21.769  0.0577 -0.4225 -0.6728
    4AIB   HB11   50  21.514  20.777  21.750 -0.6218 -1.0828  1.3615
    4AIB   HB12   51  21.626  20.752  21.879  0.7373 -0.6521 -0.6998
    4AIB   HB13   52  21.619  20.628  21.746 -1.6962 -0.6476 -0.0082
    4AIB    CB2   53  21.719  20.958  21.716  0.0701 -0.8122  0.4298
    4AIB   HB21   54  21.798  21.019  21.666  0.0528 -2.4801 -1.7956
    4AIB   HB22   55  21.714  20.962  21.827 -1.7100  0.2609  0.3514
    4AIB   HB23   56  21.618  20.992  21.685 -0.9376 -2.6154  1.5729
    4AIB      C   57  21.850  20.731  21.705  0.4233 -0.9322 -0.2829
    4AIB      O   58  21.926  20.767  21.794  0.6253  0.3552  0.3656
    5AIB      N   59  21.871  20.625  21.622 -0.1466  0.0554  0.0741
    5AIB     HN   60  21.804  20.618  21.549 -2.8309  0.0327  2.3769
    5AIB     CA   61  21.986  20.538  21.609 -0.0275  0.3414 -0.3593
    5AIB    CB1   62  21.947  20.430  21.505 -1.0147  0.8125 -0.6302
    5AIB   HB11   63  22.028  20.355  21.490 -0.8053  0.6780  0.9954
    5AIB   HB12   64  21.919  20.478  21.409  2.0992 -0.1207 -2.1684
    5AIB   HB13   65  21.848  20.386  21.529 -0.2702 -0.0524  1.0270
    5AIB    CB2   66  22.024  20.477  21.739 -0.3455  0.1391  0.0706
    5AIB   HB21   67  22.066  20.558  21.802 -0.6499  0.1744  0.2314
    5AIB   HB22   68  22.110  20.409  21.720 -0.2443  0.3757 -0.3382
    5AIB   HB23   69  21.941  20.430  21.796  0.9428 -3.7923 -0.9867
    5AIB      C   70  22.106  20.619  21.546 -0.1176 -0.2617 -0.6779
    5AIB      O   71  22.208  20.642  21.616  0.0230  0.5713 -0.7500
    6AIB      N   72  22.094  20.668  21.417 -0.5339 -0.2755 -0.1453
    6AIB     HN   73  22.009  20.648  21.369 -0.6205 -0.0615 -0.0900
    6AIB     CA   74  22.199  20.732  21.335  0.7980  0.3503  0.1966
    6AIB    CB1   75  22.138  20.784  21.207 -0.6375 -0.1157 -0.0667
    6AIB   HB11   76  22.069  20.870  21.215  1.1649  1.4259 -0.3137
    6AIB   HB12   77  22.081  20.700  21.161 -0.4801 -0.2112 -0.1037
    6AIB   HB13   78  22.221  20.815  21.141 -0.9457  1.2322  0.1491
    6AIB    CB2   79  22.305  20.624  21.303 -0.2864  0.2977  0.2928
    6AIB   HB21   80  22.369  20.620  21.393  0.1573 -1.9076 -0.0809
    6AIB   HB22   81  22.369  20.665  21.222 -0.6302 -1.4949 -0.9371
    6AIB   HB23   82  22.271  20.527  21.261  0.5102  0.2283 -0.2079
    6AIB      C   83  22.261  20.853  21.396  0.3214 -0.5476 -0.5916
    6AIB      O   84  22.385  20.869  21.381  0.0567  0.3554 -0.1979
    7AIB      N   85  22.180  20.941  21.467 -0.2376  0.8398 -0.4806
    7AIB     HN   86  22.086  20.910  21.461  0.0756 -0.2467 -0.1756
    7AIB     CA   87  22.206  21.067  21.541  0.2324 -0.3390 -0.2068
    7AIB    CB1   88  22.073  21.117  21.586  0.7933 -0.4261 -0.2542
    7AIB   HB11   89  22.032  21.056  21.669  1.5054 -0.1565  0.3022
    7AIB   HB12   90  21.998  21.116  21.504 -1.3375 -1.9508  1.5681
    7AIB   HB13   91  22.080  21.221  21.623 -1.0556 -1.1265  2.3268
    7AIB    CB2   92  22.261  21.169  21.441  0.3233 -0.2274 -0.0719
    7AIB   HB21   93  22.302  21.262  21.486 -1.1197  0.7477 -0.6983
    7AIB   HB22   94  22.185  21.193  21.364 -0.8119  0.7098  1.2612
    7AIB   HB23   95  22.341  21.118  21.384 -0.9248 -2.0865 -0.2608
    7AIB      C   96  22.300  21.039  21.660 -0.8864 -0.1686  0.4506
    7AIB      O   97  22.404  21.113  21.668  0.4519  0.8444  0.4063
    8AIB      N   98  22.283  20.923  21.734 -0.0976 -0.8135  0.1683
    8AIB     HN   99  22.231  20.843  21.707 -0.7321 -0.9840  1.7902
    8AIB     CA  100  22.362  20.893  21.857 -0.1271  0.3195  0.0618
    8AIB    CB1  101  22.298  20.767  21.909 -0.3093 -0.2716 -0.3134
    8AIB   HB11  102  22.188  20.781  21.900 -0.7726 -1.3075  2.7424
    8AIB   HB12  103  22.306  20.767  22.020 -1.1533 -2.1605 -0.2213
    8AIB   HB13  104  22.324  20.673  21.856 -1.2209 -1.2354  0.9037
    8AIB    CB2  105  22.340  21.010  21.955  0.2487 -0.0977  0.1410
    8AIB   HB21  106  22.233  21.002  21.981  0.4479 -2.0611  0.4831
    8AIB   HB22  107  22.366  21.106  21.905  1.0596 -0.9242 -1.1190
    8AIB   HB23  108  22.399  21.006  22.049 -0.7825  1.2284  0.8781
    8AIB      C  109  22.512  20.866  21.835 -0.3508 -0.8835  0.6226
    8AIB      O  110  22.594  20.863  21.926  0.4937  0.7099 -0.6064
    9AIB      N  111  22.546  20.832  21.710  0.0477 -0.2017 -0.1122
    9AIB     HN  112  22.479  20.854  21.639 -0.0759 -2.8774 -0.9474
    9AIB     CA  113  22.675  20.793  21.647  0.0052 -0.1577  0.5862
    9AIB    CB1  114  22.643  20.659  21.573 -0.3356  0.6207 -0.0528
    9AIB   HB11  115  22.587  20.594  21.644  1.6030 -0.1933  0.7834
    9AIB   HB12  116  22.733  20.612  21.528 -0.6860 -0.9827  0.8438
    9AIB   HB13  117  22.572  20.680  21.490  1.7073 -0.9146 -2.3305
    9AIB    CB2  118  22.787  20.759  21.737 -0.0580  0.5039  0.3969
    9AIB   HB21  119  22.886  20.745  21.689 -0.6531  2.0765 -1.3784
    9AIB   HB22  120  22.772  20.680  21.814  1.4893 -0.4115 -0.1917
    9AIB   HB23  121  22.792  20.843  21.810 -1.5373 -0.6883  2.0040
    9AIB      C  122  22.728  20.899  21.541 -0.4722 -0.1869 -0.5724
    9AIB      O  123  22.841  20.892  21.493  0.0915  0.5898  0.8340
    9AIB     NT  124  22.649  21.006  21.507  0.7178  0.5750  0.8916
    9AIB    HNT  125  22.557  21.008  21.547  1.3418 -3.0766  2.9797
    9AIB    CAT  126  22.676  21.103  21.404  0.4465 -0.2717 -0.6931
    9AIB    HT1  127  22.736  21.183  21.453 -0.1814  0.6208 -1.3634
    9AIB    HT2  128  22.582  21.146  21.364  0.6863  0.8479 -0.1127
    9AIB    HT3  129  22.735  21.068  21.317  0.5291 -1.0443 -0.3454
  42.09246  42.09246  42.09246
