Protein
   22
    1ACE   HH31    1   8.876   2.730   9.106  0.1417  1.3484 -0.7688
    1ACE    CH3    2   8.895   2.700   9.004 -0.1808  0.2131 -0.5151
    1ACE   HH32    3   8.942   2.786   8.955  0.7363  0.0070 -0.0312
    1ACE   HH33    4   8.811   2.665   8.944  0.2467 -1.1290 -0.3747
    1ACE      C    5   8.995   2.592   9.012 -0.0600  0.0463  0.1282
    1ACE      O    6   9.078   2.589   8.921 -0.2942  0.0646 -0.7602
    2ALA      N    7   8.990   2.505   9.110 -0.6043  0.2060 -0.5422
    2ALA      H    8   8.917   2.523   9.178 -2.1963 -1.0522 -1.8350
    2ALA     CA    9   9.100   2.407   9.129 -0.0530  0.1803 -0.2716
    2ALA     HA   10   9.079   2.355   9.222 -0.2023 -1.1982 -1.0534
    2ALA     CB   11   9.081   2.293   9.025  0.1848 -0.5431 -0.3578
    2ALA    HB1   12   8.982   2.250   9.038 -2.2493  3.4669 -3.1499
    2ALA    HB2   13   9.108   2.332   8.926  0.4639  1.1068  0.3483
    2ALA    HB3   14   9.156   2.218   9.047 -0.7298 -1.4025 -0.0741
    2ALA      C   15   9.239   2.471   9.150 -0.7141  0.4106  0.4635
    2ALA      O   16   9.261   2.587   9.187  0.2866  0.4386 -0.4119
    3NME      N   17   9.349   2.386   9.132 -0.8312  0.0056  0.3722
    3NME      H   18   9.318   2.292   9.113  0.0233 -0.5628  1.6217
    3NME    CH3   19   9.487   2.406   9.181  0.0162  0.3696 -0.3879
    3NME   HH31   20   9.484   2.464   9.274  2.5386 -0.8916  0.5584
    3NME   HH32   21   9.545   2.314   9.188  0.8339  0.8791 -0.3420
    3NME   HH33   22   9.534   2.468   9.104 -0.9811  0.0575 -1.2768
  10.72160  10.72160  10.72160
