Protein
   32
    1ACE   HH31    1  14.796  12.646   8.368  1.1743 -1.1078  2.2854
    1ACE    CH3    2  14.863  12.589   8.304  0.0978 -0.3825  0.4231
    1ACE   HH32    3  14.850  12.480   8.308  1.0284 -0.4721  2.0199
    1ACE   HH33    4  14.965  12.624   8.325 -0.0300 -0.2575  0.8634
    1ACE      C    5  14.835  12.648   8.165 -0.0361 -0.1432 -0.3076
    1ACE      O    6  14.730  12.709   8.139  0.9813 -0.1471 -0.3224
    2ALA      N    7  14.933  12.641   8.080  0.5151  0.1874 -0.3889
    2ALA      H    8  15.011  12.583   8.109  1.6923  1.5276 -0.7931
    2ALA     CA    9  14.933  12.669   7.943  0.2144 -0.6829 -0.4354
    2ALA     HA   10  14.829  12.689   7.916  0.5316  0.1779 -1.0654
    2ALA     CB   11  15.028  12.793   7.915  0.3570  0.2175  0.1588
    2ALA    HB1   12  14.998  12.885   7.965 -3.1341 -0.1476 -1.0225
    2ALA    HB2   13  15.134  12.776   7.934 -0.2848 -2.1368  1.9670
    2ALA    HB3   14  15.019  12.814   7.808 -4.3885  0.6806  0.4198
    2ALA      C   15  14.975  12.543   7.868  0.8226 -0.3157  0.2747
    2ALA      O   16  15.010  12.439   7.923  0.2768 -0.2181 -0.4944
    3ALA      N   17  14.979  12.558   7.735  0.2389  0.0555  0.9025
    3ALA      H   18  14.935  12.642   7.700 -0.7534 -0.7157  0.2495
    3ALA     CA   19  15.016  12.458   7.635  0.5694 -0.2339 -0.3963
    3ALA     HA   20  15.006  12.512   7.540  4.5906  0.5845 -0.5436
    3ALA     CB   21  15.161  12.404   7.653 -0.6343 -0.7187  0.7471
    3ALA    HB1   22  15.167  12.333   7.736  0.4620  1.0879  2.3166
    3ALA    HB2   23  15.194  12.342   7.570  3.2148  0.6547  1.0148
    3ALA    HB3   24  15.234  12.485   7.661 -0.0181 -1.0983 -0.6748
    3ALA      C   25  14.921  12.341   7.613  0.0779 -0.1594  0.1620
    3ALA      O   26  14.899  12.314   7.497  0.5944  0.1386 -0.8563
    4NME      N   27  14.872  12.282   7.727  0.3692 -0.4039  0.3580
    4NME      H   28  14.909  12.316   7.815 -1.1542 -0.1501  0.9565
    4NME    CH3   29  14.759  12.187   7.731 -0.0257 -0.4575  0.1826
    4NME   HH31   30  14.798  12.085   7.740 -1.9815 -1.5374 -2.3248
    4NME   HH32   31  14.697  12.219   7.815  0.4036 -1.1833  0.7893
    4NME   HH33   32  14.692  12.190   7.645 -0.6797 -2.8667  0.5322
  20.99041  20.99041  20.99041
