Protein
   42
    1ACE   HH31    1  13.084   9.306   1.903 -0.9283  0.1053 -1.2637
    1ACE    CH3    2  13.149   9.393   1.897  0.1719 -0.5039  0.7407
    1ACE   HH32    3  13.178   9.415   1.794 -1.3855  1.7758  0.7134
    1ACE   HH33    4  13.234   9.392   1.966 -1.1746  0.2079  2.4746
    1ACE      C    5  13.051   9.500   1.946  0.2420 -0.1947 -0.0246
    1ACE      O    6  13.030   9.589   1.869  0.3755  0.2580  0.5410
    2ALA      N    7  13.000   9.473   2.063 -0.1660 -0.1326 -0.2687
    2ALA      H    8  13.049   9.406   2.121  2.5307  0.6004 -1.5049
    2ALA     CA    9  12.882   9.540   2.126  0.2964 -1.2559 -0.2669
    2ALA     HA   10  12.902   9.647   2.137  0.4948 -1.3607  0.4543
    2ALA     CB   11  12.756   9.524   2.031  0.3337  0.6635 -0.3236
    2ALA    HB1   12  12.715   9.423   2.039 -0.3333  0.9507 -0.0316
    2ALA    HB2   13  12.686   9.604   2.050 -0.9340 -0.3478 -0.6131
    2ALA    HB3   14  12.785   9.524   1.926  0.0528 -3.1821 -0.5314
    2ALA      C   15  12.853   9.479   2.268 -0.0959  0.6351  0.2289
    2ALA      O   16  12.881   9.361   2.299 -0.1808 -0.0978  0.3685
    3ALA      N   17  12.792   9.560   2.356 -0.6501 -0.2846 -0.0180
    3ALA      H   18  12.771   9.650   2.315 -0.6085 -0.0377  0.4971
    3ALA     CA   19  12.730   9.525   2.485  0.0266  0.3258 -0.7977
    3ALA     HA   20  12.700   9.613   2.541 -0.1851 -0.4445  0.3257
    3ALA     CB   21  12.599   9.448   2.458 -0.1393  0.3938  0.1236
    3ALA    HB1   22  12.535   9.454   2.546 -1.1158 -0.8300 -0.4646
    3ALA    HB2   23  12.549   9.491   2.371  1.0850 -0.4860 -1.0436
    3ALA    HB3   24  12.615   9.342   2.441  2.1952  0.8808 -1.0814
    3ALA      C   25  12.813   9.455   2.601 -0.0162 -0.2872  0.1154
    3ALA      O   26  12.772   9.454   2.715  0.3162  0.0583  0.2984
    4ALA      N   27  12.928   9.397   2.572  0.4549  0.2301 -0.2099
    4ALA      H   28  12.955   9.406   2.475 -0.2910  1.3812 -0.3243
    4ALA     CA   29  13.002   9.297   2.655 -0.2505 -0.2029 -0.3762
    4ALA     HA   30  12.946   9.230   2.721  0.9878  1.7578  2.8653
    4ALA     CB   31  13.072   9.197   2.561  0.2242 -0.0900  0.1385
    4ALA    HB1   32  13.144   9.136   2.615  0.7267  1.1664  0.9481
    4ALA    HB2   33  13.001   9.134   2.506 -1.2578  1.0853  0.6248
    4ALA    HB3   34  13.125   9.252   2.483 -0.6720 -1.1416 -1.2769
    4ALA      C   35  13.109   9.362   2.750  0.8835  0.0492  0.1338
    4ALA      O   36  13.223   9.318   2.760  0.3672 -0.5857  0.0073
    5NME      N   37  13.056   9.465   2.820  0.2189 -0.7907  0.8615
    5NME      H   38  12.964   9.490   2.787  0.4575  0.8666  1.3091
    5NME    CH3   39  13.122   9.546   2.921 -0.1309  0.4370 -0.1258
    5NME   HH31   40  13.043   9.583   2.986 -1.6632 -3.3891  0.4476
    5NME   HH32   41  13.202   9.488   2.968 -2.3962 -3.3833 -0.5678
    5NME   HH33   42  13.156   9.635   2.869 -1.4173  0.2679 -1.3148
  20.91516  20.91516  20.91516
