Protein
   22
    1ACE   HH31    1   1.541   4.598   4.582  1.2177 -0.9122 -0.5970
    1ACE    CH3    2   1.452   4.575   4.524  0.5243  0.1489  0.0106
    1ACE   HH32    3   1.473   4.490   4.458  0.9960 -0.8421  1.4077
    1ACE   HH33    4   1.425   4.649   4.448 -1.5815 -1.8764 -1.3640
    1ACE      C    5   1.329   4.540   4.607  0.2870  0.6292  0.4835
    1ACE      O    6   1.218   4.548   4.557 -0.2273  0.0023 -0.7531
    2ALA      N    7   1.345   4.506   4.735  0.3964 -0.0321  0.1959
    2ALA      H    8   1.441   4.512   4.767  0.5455 -0.5769 -0.1244
    2ALA     CA    9   1.243   4.502   4.834  0.4629  0.3303 -0.1865
    2ALA     HA   10   1.182   4.592   4.838  1.8864  1.3140  0.8050
    2ALA     CB   11   1.151   4.383   4.819  0.7953 -0.1010 -0.0957
    2ALA    HB1   12   1.070   4.416   4.753  0.5025 -2.0141 -0.7561
    2ALA    HB2   13   1.198   4.299   4.767  0.7161 -0.7306  0.8418
    2ALA    HB3   14   1.100   4.360   4.912 -1.6173  4.1144 -0.1251
    2ALA      C   15   1.312   4.507   4.973  0.1796 -0.3145  0.2705
    2ALA      O   16   1.360   4.613   5.014 -0.4191  0.1879 -0.2385
    3NME      N   17   1.333   4.392   5.039 -0.5870 -0.5674  0.0176
    3NME      H   18   1.282   4.309   5.013 -2.3668  0.2777  0.7067
    3NME    CH3   19   1.414   4.379   5.158 -0.4002 -0.4019  0.4603
    3NME   HH31   20   1.520   4.385   5.134 -0.9448  1.6604 -1.8262
    3NME   HH32   21   1.398   4.445   5.244 -0.1053  0.7156 -0.3176
    3NME   HH33   22   1.396   4.278   5.195 -2.0165  0.4791  2.2963
  10.72160  10.72160  10.72160
