Protein
   32
    1ACE   HH31    1   8.498  11.787   6.808 -0.4861  0.3179  0.4579
    1ACE    CH3    2   8.433  11.738   6.736  0.4316  0.2274 -0.3390
    1ACE   HH32    3   8.386  11.809   6.668  2.1647  0.5164 -1.2725
    1ACE   HH33    4   8.357  11.684   6.793  0.4774  1.7990  1.2827
    1ACE      C    5   8.520  11.638   6.669 -0.3646 -0.6683 -0.3072
    1ACE      O    6   8.513  11.517   6.694  0.3246 -0.3411 -0.2038
    2ALA      N    7   8.603  11.682   6.572  0.7954  0.0010 -0.0120
    2ALA      H    8   8.604  11.782   6.556 -1.3119  0.0446 -0.1327
    2ALA     CA    9   8.672  11.602   6.473 -0.0540  0.0977 -0.4074
    2ALA     HA   10   8.639  11.499   6.490  2.1470 -0.5375  0.3192
    2ALA     CB   11   8.635  11.633   6.328 -0.2378  0.0704  0.3325
    2ALA    HB1   12   8.527  11.631   6.312 -0.0716 -2.4542 -0.9095
    2ALA    HB2   13   8.678  11.732   6.309 -0.7021  0.3093  0.5063
    2ALA    HB3   14   8.696  11.566   6.267  3.7287  0.6667  3.2924
    2ALA      C   15   8.823  11.591   6.501  0.1991 -0.4766 -0.2511
    2ALA      O   16   8.907  11.645   6.429  0.0324 -0.3160 -0.1788
    3ALA      N   17   8.868  11.519   6.604 -0.0888 -0.0905  0.6728
    3ALA      H   18   8.800  11.470   6.660 -1.6892 -0.0198 -1.1160
    3ALA     CA   19   9.011  11.483   6.606 -0.7179  1.0713 -1.0056
    3ALA     HA   20   9.046  11.464   6.504  1.1142 -2.8336  0.1694
    3ALA     CB   21   9.101  11.590   6.671  0.0132  0.0240 -0.2478
    3ALA    HB1   22   9.060  11.605   6.771  0.3909 -2.2074  0.3025
    3ALA    HB2   23   9.205  11.557   6.680  0.0166  0.0126 -0.3214
    3ALA    HB3   24   9.108  11.687   6.621  0.2790  0.3440  0.3958
    3ALA      C   25   9.024  11.358   6.698  0.1954  0.3456 -0.9362
    3ALA      O   26   8.939  11.328   6.786 -0.0717 -0.3083  0.4077
    4NME      N   27   9.136  11.287   6.681  0.2771  0.1714 -0.5099
    4NME      H   28   9.204  11.312   6.611  1.0971  0.3561  0.3442
    4NME    CH3   29   9.164  11.169   6.765 -0.1530  0.3799  0.7300
    4NME   HH31   30   9.188  11.199   6.866  0.0367  1.6104  0.3281
    4NME   HH32   31   9.074  11.107   6.771 -1.1812  1.9114  1.7718
    4NME   HH33   32   9.250  11.108   6.736 -0.6224  0.2443 -0.4972
  20.99041  20.99041  20.99041
