Protein
   42
    1ACE   HH31    1   9.320  10.578   8.043 -2.7383 -0.9676 -3.0764
    1ACE    CH3    2   9.250  10.643   8.094 -0.4963 -0.6235 -0.1463
    1ACE   HH32    3   9.285  10.722   8.161 -1.7747  0.1245 -0.3343
    1ACE   HH33    4   9.188  10.579   8.158 -0.2328 -0.5829  0.1486
    1ACE      C    5   9.152  10.712   8.000 -0.7480  0.4465 -0.1264
    1ACE      O    6   9.069  10.791   8.043 -0.0306 -0.1770  0.1829
    2ALA      N    7   9.150  10.671   7.879  0.1426 -0.2355  0.5814
    2ALA      H    8   9.217  10.600   7.856  0.1880 -0.0958  0.2925
    2ALA     CA    9   9.096  10.745   7.766 -0.0052  0.3980  1.3301
    2ALA     HA   10   8.989  10.754   7.785 -0.4732 -1.6978 -0.0478
    2ALA     CB   11   9.143  10.885   7.765 -0.1653 -0.7000  0.2752
    2ALA    HB1   12   9.103  10.933   7.855 -2.7391  0.7184 -1.4915
    2ALA    HB2   13   9.250  10.907   7.774 -0.6684  4.3490 -2.2226
    2ALA    HB3   14   9.119  10.951   7.682  3.6567  2.7583  1.4937
    2ALA      C   15   9.129  10.677   7.626 -0.2631 -0.0080 -0.3943
    2ALA      O   16   9.240  10.623   7.615 -0.0604  0.4742 -0.5121
    3ALA      N   17   9.033  10.652   7.541  0.0150 -0.1620 -0.2693
    3ALA      H   18   9.066  10.590   7.469  0.8300  1.3461 -1.2559
    3ALA     CA   19   8.900  10.698   7.526  0.3526 -0.0190  0.9649
    3ALA     HA   20   8.838  10.687   7.615  0.0862  1.3232  0.9693
    3ALA     CB   21   8.898  10.842   7.482  0.3394 -0.4323  0.7046
    3ALA    HB1   22   8.804  10.896   7.499  2.0017  2.2657  2.0216
    3ALA    HB2   23   8.968  10.895   7.547  0.5877  0.0837  0.0282
    3ALA    HB3   24   8.938  10.856   7.382  1.5150 -2.5338  0.8405
    3ALA      C   25   8.830  10.620   7.412  0.9283 -0.3274 -0.3937
    3ALA      O   26   8.896  10.559   7.330 -0.2627 -0.2318  0.6334
    4ALA      N   27   8.696  10.626   7.407  0.0856 -0.5207 -0.3626
    4ALA      H   28   8.651  10.675   7.483 -2.4278 -0.9634 -1.4709
    4ALA     CA   29   8.616  10.573   7.302 -0.2677 -0.0549 -0.4281
    4ALA     HA   30   8.654  10.475   7.274  1.9828  0.7985 -0.5446
    4ALA     CB   31   8.477  10.562   7.364  0.0572 -0.4269  0.6009
    4ALA    HB1   32   8.433  10.658   7.392  1.6102  0.8232 -0.9425
    4ALA    HB2   33   8.413  10.515   7.290 -1.2808 -1.1841  2.1630
    4ALA    HB3   34   8.480  10.486   7.441 -4.5793 -0.7472  0.7287
    4ALA      C   35   8.617  10.665   7.178  0.0158 -0.1166 -0.0144
    4ALA      O   36   8.543  10.760   7.167 -0.3902 -0.2879 -0.0172
    5NME      N   37   8.707  10.625   7.085  0.4307  0.5461  0.2766
    5NME      H   38   8.759  10.544   7.115  0.0578 -0.4987 -1.7109
    5NME    CH3   39   8.757  10.701   6.972  0.0034  0.5511  0.2134
    5NME   HH31   40   8.703  10.683   6.879  0.7712 -1.9816  0.2117
    5NME   HH32   41   8.731  10.806   6.985  0.6019  0.8285 -0.6572
    5NME   HH33   42   8.866  10.701   6.962  0.2151  1.0693  2.0979
  20.91516  20.91516  20.91516
