Protein
   32
    1ACE   HH31    1   8.861  10.560  12.586  1.1070 -0.8291 -0.8898
    1ACE    CH3    2   8.880  10.489  12.666  0.4217 -0.0067  0.0248
    1ACE   HH32    3   8.956  10.415  12.640 -0.3027 -0.8761  0.3465
    1ACE   HH33    4   8.793  10.429  12.692  1.4823 -1.9076 -0.6074
    1ACE      C    5   8.941  10.571  12.781 -0.2870 -0.2415  0.0169
    1ACE      O    6   8.974  10.686  12.760  0.3439  0.2179 -0.9129
    2ALA      N    7   8.961  10.516  12.905 -0.3618 -0.6231  0.1440
    2ALA      H    8   8.910  10.431  12.925 -1.1295 -0.2940 -0.3215
    2ALA     CA    9   9.040  10.572  13.013  0.6644 -0.5777 -0.2274
    2ALA     HA   10   8.997  10.666  13.046  4.0024  0.0068  3.1851
    2ALA     CB   11   9.057  10.482  13.140  0.8370 -0.0602 -0.1792
    2ALA    HB1   12   9.094  10.545  13.221 -1.0035 -3.1433  3.2891
    2ALA    HB2   13   8.955  10.467  13.174  1.0229  1.4135  1.2100
    2ALA    HB3   14   9.123  10.400  13.111  0.2842 -0.7208  0.4151
    2ALA      C   15   9.185  10.618  12.971  0.2721  0.5818 -0.3409
    2ALA      O   16   9.261  10.535  12.917  0.3635 -0.3958  0.6583
    3ALA      N   17   9.228  10.731  13.024  0.0875  0.0141  0.1082
    3ALA      H   18   9.152  10.792  13.055  0.0764  1.6579 -2.8771
    3ALA     CA   19   9.362  10.790  12.999 -0.2639 -1.0276 -0.3657
    3ALA     HA   20   9.360  10.815  12.894 -1.9550  0.9792  0.0936
    3ALA     CB   21   9.368  10.922  13.074 -0.5478 -0.0381 -0.4064
    3ALA    HB1   22   9.440  10.984  13.020  1.4163 -0.3422  1.6856
    3ALA    HB2   23   9.266  10.961  13.077 -1.1936 -1.6404 -0.6386
    3ALA    HB3   24   9.399  10.911  13.178 -0.4695  3.3202  0.0120
    3ALA      C   25   9.498  10.712  13.030 -0.3678 -0.3304  0.0941
    3ALA      O   26   9.607  10.762  13.001  0.0944  0.4189  0.1309
    4NME      N   27   9.493  10.588  13.086  0.4782 -0.1935  0.0467
    4NME      H   28   9.403  10.555  13.118  0.3455  0.9893  0.9723
    4NME    CH3   29   9.622  10.506  13.114  0.7895 -0.1014  0.4982
    4NME   HH31   30   9.677  10.538  13.203  3.1927  0.2143 -1.0208
    4NME   HH32   31   9.605  10.399  13.107  2.6800 -0.5613  2.0780
    4NME   HH33   32   9.689  10.533  13.032 -1.6968 -2.0653 -2.3723
  20.99041  20.99041  20.99041
