Protein
   42
    1ACE   HH31    1   8.814   9.182  12.645 -0.2003 -0.6008  2.0768
    1ACE    CH3    2   8.732   9.113  12.624 -0.1145 -0.0702 -0.3339
    1ACE   HH32    3   8.650   9.113  12.697 -0.7536  2.6489 -0.9487
    1ACE   HH33    4   8.772   9.012  12.620  0.6277  0.2149 -0.3322
    1ACE      C    5   8.674   9.150  12.486  0.1083 -0.7708  0.6712
    1ACE      O    6   8.713   9.246  12.420 -0.1415  0.2333 -0.3320
    2ALA      N    7   8.572   9.076  12.452  0.3558 -0.0306 -0.7242
    2ALA      H    8   8.563   8.988  12.502 -0.3271  0.9782  1.0115
    2ALA     CA    9   8.471   9.095  12.349 -0.3396 -0.5404  0.2973
    2ALA     HA   10   8.500   9.037  12.262  0.0881 -1.6302  1.1445
    2ALA     CB   11   8.335   9.029  12.385  0.4610 -0.6777  0.1641
    2ALA    HB1   12   8.287   9.091  12.460 -1.3870 -1.7218 -0.0960
    2ALA    HB2   13   8.279   9.049  12.293  1.3860 -0.3129 -0.3335
    2ALA    HB3   14   8.345   8.925  12.416 -0.6890 -1.3514 -1.5615
    2ALA      C   15   8.458   9.237  12.299 -0.3750  0.1216 -0.1734
    2ALA      O   16   8.380   9.306  12.367 -0.1500 -0.1935 -0.2886
    3ALA      N   17   8.495   9.279  12.174  0.3679 -0.5757 -0.4228
    3ALA      H   18   8.474   9.375  12.152  1.4112 -0.8268 -2.9871
    3ALA     CA   19   8.581   9.227  12.068 -0.3628  0.1281 -0.4909
    3ALA     HA   20   8.521   9.216  11.977 -2.3594 -0.2766  0.8147
    3ALA     CB   21   8.691   9.338  12.035 -0.6890 -1.1226 -0.6307
    3ALA    HB1   22   8.643   9.423  11.987  0.0962 -0.7134 -0.6978
    3ALA    HB2   23   8.746   9.360  12.126 -1.1180 -1.0354 -0.3872
    3ALA    HB3   24   8.763   9.303  11.961  0.4660 -0.4843  0.1702
    3ALA      C   25   8.651   9.095  12.082  0.1103  0.5743 -0.3988
    3ALA      O   26   8.614   8.992  12.030  0.0711  0.3909 -0.4782
    4ALA      N   27   8.751   9.085  12.166 -0.2570  0.3404 -0.6276
    4ALA      H   28   8.774   9.170  12.217 -3.5157  2.7926 -2.8304
    4ALA     CA   29   8.831   8.962  12.202  0.8279 -0.1922 -0.3011
    4ALA     HA   30   8.853   8.905  12.111 -2.4557 -0.1863 -1.2040
    4ALA     CB   31   8.957   9.020  12.274  0.5476  0.0993  0.5482
    4ALA    HB1   32   9.014   9.073  12.198  0.0198 -2.0145 -1.4425
    4ALA    HB2   33   8.932   9.095  12.349 -1.0719  1.2056 -1.0174
    4ALA    HB3   34   9.015   8.934  12.309  0.8997 -1.2154 -2.8671
    4ALA      C   35   8.750   8.866  12.293 -0.0048  0.2644  1.0178
    4ALA      O   36   8.770   8.848  12.412  0.1408 -0.4588 -0.0026
    5NME      N   37   8.644   8.810  12.229  0.2717 -0.7061  0.2962
    5NME      H   38   8.627   8.844  12.136  3.1247 -0.5321 -0.2343
    5NME    CH3   39   8.547   8.727  12.292  0.9599 -0.2563 -0.7218
    5NME   HH31   40   8.517   8.762  12.391  0.9307 -1.6690 -0.2049
    5NME   HH32   41   8.454   8.728  12.234  0.6953  1.7686 -0.3413
    5NME   HH33   42   8.579   8.625  12.311 -1.3548 -1.1650 -1.2395
  20.91516  20.91516  20.91516
