Protein
   42
    1ACE   HH31    1  14.582   8.785   6.199  0.5216  0.6812 -0.0527
    1ACE    CH3    2  14.586   8.683   6.237 -0.0947  0.5600 -0.2734
    1ACE   HH32    3  14.505   8.628   6.190 -0.7043  0.2884  1.0553
    1ACE   HH33    4  14.562   8.683   6.343 -2.9127  0.1440 -0.8563
    1ACE      C    5  14.720   8.617   6.218  0.1983 -0.5146  0.0760
    1ACE      O    6  14.807   8.637   6.300  0.1460 -0.1046 -0.1470
    2ALA      N    7  14.728   8.560   6.101  0.6247  0.4315  0.2560
    2ALA      H    8  14.643   8.556   6.046  1.1750  1.4253 -0.6971
    2ALA     CA    9  14.847   8.499   6.039 -0.1513 -0.5703  0.5975
    2ALA     HA   10  14.815   8.431   5.960 -0.1114  0.6072 -0.4856
    2ALA     CB   11  14.913   8.606   5.954  0.2425 -0.7586  0.0832
    2ALA    HB1   12  15.008   8.565   5.921  1.4260  0.4564  1.8543
    2ALA    HB2   13  14.854   8.631   5.866  0.4915 -1.2654 -0.2344
    2ALA    HB3   14  14.928   8.693   6.017 -1.8639 -0.9248  0.8941
    2ALA      C   15  14.943   8.428   6.134 -0.2578  0.8271 -0.0446
    2ALA      O   16  14.927   8.310   6.136  0.0735  0.3735  0.8090
    3ALA      N   17  15.021   8.492   6.221  0.0938 -0.0139  0.2013
    3ALA      H   18  15.018   8.593   6.229 -0.8904 -0.1948  2.6686
    3ALA     CA   19  15.097   8.424   6.326  0.9298  0.0275 -0.1381
    3ALA     HA   20  15.167   8.357   6.277 -1.7800 -3.2856  0.0916
    3ALA     CB   21  15.157   8.528   6.416 -0.2829 -0.0671 -0.3181
    3ALA    HB1   22  15.226   8.594   6.363 -0.4293  1.1863  0.9618
    3ALA    HB2   23  15.083   8.589   6.466  0.2785  0.3255  0.0437
    3ALA    HB3   24  15.212   8.475   6.495  0.0165  0.8102  0.0810
    3ALA      C   25  14.999   8.347   6.420  0.8339 -0.3817  0.5572
    3ALA      O   26  15.038   8.260   6.492 -0.5140 -0.2330  0.5093
    4ALA      N   27  14.868   8.368   6.412 -0.1976 -0.3177  0.0933
    4ALA      H   28  14.836   8.440   6.349 -3.3129  0.1604  2.0304
    4ALA     CA   29  14.765   8.298   6.491  0.2962 -0.4802  0.5508
    4ALA     HA   30  14.811   8.228   6.561 -0.1542  0.2309  1.5805
    4ALA     CB   31  14.695   8.408   6.573 -0.6241  0.6786  0.1061
    4ALA    HB1   32  14.621   8.358   6.635  1.4425  1.3471  3.3424
    4ALA    HB2   33  14.764   8.456   6.643  0.8486 -0.8918 -0.2130
    4ALA    HB3   34  14.651   8.481   6.506  0.2246  1.6399  0.5639
    4ALA      C   35  14.661   8.220   6.401 -0.1325  1.0270 -0.1598
    4ALA      O   36  14.548   8.204   6.443  0.7356  0.3716 -0.2533
    5NME      N   37  14.705   8.168   6.287  0.1691 -1.1363  0.1202
    5NME      H   38  14.797   8.197   6.257 -0.5213  1.2160  0.1043
    5NME    CH3   39  14.638   8.065   6.208  0.0818  0.0219 -0.2044
    5NME   HH31   40  14.576   8.127   6.143 -1.2906 -0.8139  0.2770
    5NME   HH32   41  14.711   8.006   6.154  0.0555 -0.7548  0.5915
    5NME   HH33   42  14.568   7.998   6.256  0.1432 -0.9577 -1.4340
  20.91516  20.91516  20.91516
