Protein
   22
    1ACE   HH31    1   1.698   6.515   6.640  1.2835 -0.2743  2.7022
    1ACE    CH3    2   1.653   6.605   6.681  0.6612  0.5479  0.3606
    1ACE   HH32    3   1.546   6.610   6.659  0.9520  2.2736 -0.8520
    1ACE   HH33    4   1.702   6.696   6.646  2.0856 -1.1684 -2.4097
    1ACE      C    5   1.654   6.600   6.834 -0.2477 -0.0677  0.8706
    1ACE      O    6   1.658   6.703   6.901  0.1410 -0.0882  0.9073
    2ALA      N    7   1.662   6.483   6.891 -0.7981 -0.7008  0.4064
    2ALA      H    8   1.663   6.407   6.824 -0.9273 -0.0517 -0.3532
    2ALA     CA    9   1.695   6.454   7.028 -0.8983 -0.0615 -0.0918
    2ALA     HA   10   1.616   6.492   7.093 -1.4703 -2.2657  0.5774
    2ALA     CB   11   1.690   6.298   7.050 -0.5623  0.0785  0.0410
    2ALA    HB1   12   1.748   6.249   6.973 -2.3972 -1.5472 -0.3794
    2ALA    HB2   13   1.716   6.262   7.149 -0.7759  0.8145  0.3765
    2ALA    HB3   14   1.590   6.261   7.029 -0.3494 -0.0239 -0.8178
    2ALA      C   15   1.835   6.509   7.073  0.4746  0.3298  0.1088
    2ALA      O   16   1.874   6.474   7.182 -0.0033 -0.6152 -0.2792
    3NME      N   17   1.903   6.589   6.990  0.2390 -0.1041 -0.0197
    3NME      H   18   1.849   6.632   6.916 -0.4609  2.2984  1.7780
    3NME    CH3   19   2.035   6.647   7.019  0.5472  0.2434  0.4154
    3NME   HH31   20   2.072   6.629   7.120  0.0927  2.2663  0.9953
    3NME   HH32   21   2.108   6.611   6.947  0.2064 -1.3023  0.8073
    3NME   HH33   22   2.032   6.756   7.010  0.4441  0.2804  0.8561
  10.72160  10.72160  10.72160
