Protein
   32
    1ACE   HH31    1   9.171  13.626  11.198 -0.4635  0.0647  0.0151
    1ACE    CH3    2   9.213  13.667  11.106 -0.5474 -0.1585 -0.1275
    1ACE   HH32    3   9.304  13.608  11.096 -1.0142 -1.4024  2.0691
    1ACE   HH33    4   9.240  13.771  11.122  0.5669 -0.3091 -0.9752
    1ACE      C    5   9.118  13.644  10.991  0.0347 -0.4392 -0.3324
    1ACE      O    6   9.028  13.562  11.002 -0.3739 -0.7816 -0.1511
    2ALA      N    7   9.135  13.720  10.883  0.8387  0.2207  0.4659
    2ALA      H    8   9.199  13.798  10.887 -1.0351  1.7925  1.3346
    2ALA     CA    9   9.078  13.696  10.746  0.6469  0.0969  0.5277
    2ALA     HA   10   9.111  13.784  10.690 -0.2702 -0.0727 -0.3341
    2ALA     CB   11   9.153  13.582  10.664 -0.6055  0.2041  0.6894
    2ALA    HB1   12   9.153  13.484  10.712  0.4966 -0.0512  0.2049
    2ALA    HB2   13   9.111  13.551  10.569  1.6560 -0.7971 -0.0417
    2ALA    HB3   14   9.255  13.615  10.641 -0.0367 -2.3643 -0.7509
    2ALA      C   15   8.922  13.703  10.723  0.3789 -0.0718 -0.1386
    2ALA      O   16   8.874  13.707  10.611  0.2535  0.0496 -0.3892
    3ALA      N   17   8.842  13.710  10.829  0.6291 -0.2936 -0.2674
    3ALA      H   18   8.873  13.673  10.918 -1.2854 -1.5187 -0.0787
    3ALA     CA   19   8.693  13.716  10.830 -0.7698 -0.5694  0.1058
    3ALA     HA   20   8.678  13.650  10.744  1.7666  0.1827 -1.0170
    3ALA     CB   21   8.639  13.657  10.961 -0.0716 -0.5985 -0.4863
    3ALA    HB1   22   8.679  13.715  11.043  1.4707 -0.0378 -1.5889
    3ALA    HB2   23   8.530  13.655  10.954 -0.0742 -0.1568 -0.6587
    3ALA    HB3   24   8.678  13.555  10.968 -1.9165 -1.2304  2.6007
    3ALA      C   25   8.647  13.861  10.790  0.2614  0.8262 -0.3244
    3ALA      O   26   8.559  13.906  10.859  0.3947  0.1671  0.0660
    4NME      N   27   8.693  13.911  10.672 -0.1833 -0.2806  0.3221
    4NME      H   28   8.757  13.854  10.620 -0.9110  0.1236 -1.0732
    4NME    CH3   29   8.660  14.041  10.617 -0.1185  0.3389 -0.2052
    4NME   HH31   30   8.676  14.039  10.509  0.9808 -1.0757 -0.0407
    4NME   HH32   31   8.554  14.061  10.628 -0.8923 -1.3138 -3.3981
    4NME   HH33   32   8.722  14.115  10.666  0.9801 -0.8954  0.3218
  20.99041  20.99041  20.99041
