Protein
   60
    1ACE   HH31    1  20.689  20.461  21.638 -2.6624  4.0203  0.5034
    1ACE    CH3    2  20.773  20.514  21.593 -0.0830  0.4362  0.6405
    1ACE   HH32    3  20.857  20.446  21.603 -1.0582 -0.8101  0.6751
    1ACE   HH33    4  20.743  20.521  21.488 -0.6245  2.1087  0.8805
    1ACE      C    5  20.797  20.647  21.658 -0.6724 -0.1021 -0.5652
    1ACE      O    6  20.718  20.684  21.746 -0.0469  0.0374 -0.1642
    2TRP      N    7  20.903  20.714  21.628 -0.1396 -0.0027  0.5068
    2TRP      H    8  20.912  20.798  21.683 -1.8169 -0.6729  1.9046
    2TRP     CA    9  20.999  20.676  21.521  0.0882 -0.3202  0.1132
    2TRP     HA   10  20.954  20.609  21.448 -0.0265  1.2376 -1.3184
    2TRP     CB   11  21.032  20.802  21.436 -0.4120  0.1355  0.2824
    2TRP    HB1   12  21.137  20.791  21.410 -0.7620 -0.8610 -0.7850
    2TRP    HB2   13  21.016  20.888  21.501  3.0986  0.9667  0.2367
    2TRP     CG   14  20.962  20.801  21.299  0.0722  0.7625  1.0489
    2TRP    CD1   15  20.828  20.812  21.276  0.5508  0.0578 -0.2774
    2TRP    HD1   16  20.759  20.833  21.356 -0.6955 -4.8192  0.2901
    2TRP    NE1   17  20.800  20.803  21.140  0.0288 -0.2104  0.0792
    2TRP    HE1   18  20.707  20.809  21.100 -0.0275 -2.5907 -0.3264
    2TRP    CE2   19  20.911  20.774  21.069 -0.1369 -0.1361  0.0544
    2TRP    CZ2   20  20.935  20.739  20.937  0.6555  0.1088 -0.1339
    2TRP    HZ2   21  20.858  20.725  20.862  0.7068 -0.0171 -0.1624
    2TRP    CH2   22  21.063  20.723  20.897 -0.4240  0.2022 -0.1108
    2TRP    HH2   23  21.084  20.712  20.792  0.3427  1.1704 -0.0857
    2TRP    CZ3   24  21.172  20.760  20.982  0.9421 -0.3643  0.1004
    2TRP    HZ3   25  21.266  20.774  20.931  0.7961  3.9850  0.6841
    2TRP    CE3   26  21.154  20.791  21.118 -0.0651  0.2647 -0.5463
    2TRP    HE3   27  21.241  20.806  21.181 -1.8579 -0.3131  2.2178
    2TRP    CD2   28  21.020  20.789  21.164 -0.2782  0.0793 -0.5967
    2TRP      C   29  21.118  20.600  21.573 -0.1074  0.7087 -0.4139
    2TRP      O   30  21.154  20.618  21.694 -0.2679 -0.4532  0.9622
    3TRP      N   31  21.188  20.514  21.491  0.2192 -0.6277  0.4116
    3TRP      H   32  21.262  20.464  21.537  0.2821 -1.0215 -0.1119
    3TRP     CA   33  21.166  20.478  21.347  0.5331  0.0841 -0.3293
    3TRP     HA   34  21.124  20.562  21.292 -0.8179 -0.1375  0.3414
    3TRP     CB   35  21.076  20.358  21.324  0.9136 -0.1382  0.4813
    3TRP    HB1   36  21.133  20.267  21.344  1.2327  0.2262  1.2979
    3TRP    HB2   37  20.993  20.365  21.394 -0.4491 -0.6716 -1.0173
    3TRP     CG   38  21.020  20.348  21.183 -1.0467 -0.0979 -0.7377
    3TRP    CD1   39  21.077  20.286  21.078 -0.5508 -0.5612  0.8762
    3TRP    HD1   40  21.180  20.254  21.076 -0.5984 -0.7643  1.4629
    3TRP    NE1   41  20.996  20.290  20.968 -0.0647  0.0729  0.1514
    3TRP    HE1   42  21.015  20.244  20.880 -2.0023  1.6813 -1.1963
    3TRP    CE2   43  20.877  20.356  20.992 -0.4690  0.3354 -0.1573
    3TRP    CZ2   44  20.775  20.399  20.907 -0.2868 -0.5186 -0.3125
    3TRP    HZ2   45  20.774  20.368  20.804  1.3464  0.2882 -0.5913
    3TRP    CH2   46  20.667  20.471  20.963 -0.7234  0.0764  0.2232
    3TRP    HH2   47  20.585  20.492  20.896 -0.6014 -2.7589 -0.9633
    3TRP    CZ3   48  20.672  20.503  21.103 -0.3168 -0.3011  0.1271
    3TRP    HZ3   49  20.600  20.574  21.143  1.0049  0.0416  2.0089
    3TRP    CE3   50  20.778  20.461  21.190 -0.1306  0.1854  0.3390
    3TRP    HE3   51  20.786  20.500  21.290  2.0699  2.9137 -0.7711
    3TRP    CD2   52  20.890  20.385  21.135  0.5629 -0.2443 -0.1730
    3TRP      C   53  21.301  20.443  21.281 -0.2260 -0.3622 -0.6993
    3TRP      O   54  21.384  20.375  21.342 -0.4941  0.9853  0.2130
    4NME      N   55  21.322  20.491  21.160 -0.2491 -0.1707  0.2154
    4NME      H   56  21.245  20.542  21.119  0.0723 -0.6680 -1.0281
    4NME    CH3   57  21.436  20.473  21.081 -0.9114  0.6021 -0.7949
    4NME   HH31   58  21.413  20.526  20.989 -1.8543  0.2266 -0.7798
    4NME   HH32   59  21.529  20.513  21.121 -1.3764  2.5092 -1.4919
    4NME   HH33   60  21.450  20.366  21.068  0.5978  0.6443  0.2537
  41.12396  41.12396  41.12396
