Title
  129
    1AIB    CAY    1  20.745  21.739  21.804  0.1986 -0.5449 -0.9415
    1AIB    HY1    2  20.768  21.726  21.696 -0.9193 -0.2897 -1.2263
    1AIB    HY2    3  20.805  21.826  21.837  1.4953 -0.6281 -2.8820
    1AIB    HY3    4  20.635  21.756  21.797 -0.1062 -1.4788  0.8809
    1AIB     CY    5  20.781  21.610  21.873  0.3067 -0.6059 -0.4890
    1AIB     OY    6  20.731  21.504  21.848 -0.3154 -0.0329 -0.2223
    1AIB      N    7  20.873  21.624  21.970  0.3831 -0.5362  0.2171
    1AIB     HN    8  20.902  21.716  21.994 -0.3926 -0.4393  0.8163
    1AIB     CA    9  20.927  21.520  22.045  0.1887  0.3491  0.4015
    1AIB    CB1   10  20.845  21.488  22.168  0.2526  0.2275  0.3035
    1AIB   HB11   11  20.815  21.580  22.223 -2.1548 -0.7400  0.7190
    1AIB   HB12   12  20.910  21.429  22.236  1.0417  1.0936  0.3253
    1AIB   HB13   13  20.748  21.437  22.148  0.1666  0.2761  0.5984
    1AIB    CB2   14  21.057  21.580  22.101  0.2660  0.0960  0.6505
    1AIB   HB21   15  21.017  21.666  22.159 -0.4420  1.3670 -1.6185
    1AIB   HB22   16  21.127  21.618  22.023 -1.1546 -1.9694 -1.7621
    1AIB   HB23   17  21.119  21.502  22.150  3.3927  1.6118 -0.6577
    1AIB      C   18  20.956  21.383  21.972  0.4778  0.6415  0.4169
    1AIB      O   19  21.027  21.374  21.872  0.5134  0.2067  0.1761
    2AIB      N   20  20.895  21.272  22.025  0.1613 -0.1734 -0.0848
    2AIB     HN   21  20.821  21.281  22.092 -0.1639 -1.9251 -0.1460
    2AIB     CA   22  20.930  21.138  22.003  0.0582 -1.0098 -0.5172
    2AIB    CB1   23  20.839  21.051  22.092  0.0876  0.2232  0.0664
    2AIB   HB11   24  20.733  21.080  22.075 -0.4763 -0.2076  2.4405
    2AIB   HB12   25  20.867  21.066  22.198  0.0020 -0.3533  0.1877
    2AIB   HB13   26  20.834  20.942  22.067 -1.9695 -0.1121  1.6798
    2AIB    CB2   27  21.078  21.116  22.051  0.1699  0.3908  0.1006
    2AIB   HB21   28  21.141  21.194  22.005  0.0379 -0.1199 -0.9701
    2AIB   HB22   29  21.106  21.014  22.016  1.1161  0.7192 -0.1239
    2AIB   HB23   30  21.092  21.142  22.158 -1.1576 -0.4152  0.4922
    2AIB      C   31  20.892  21.098  21.861 -0.1991  0.1101 -0.2330
    2AIB      O   32  20.963  21.023  21.799  0.2971 -0.3640  0.1689
    3AIB      N   33  20.772  21.146  21.813  0.3107 -0.3481  0.0010
    3AIB     HN   34  20.724  21.220  21.861 -0.8731 -0.8627 -0.3709
    3AIB     CA   35  20.710  21.109  21.690 -0.0619  0.5125  0.1082
    3AIB    CB1   36  20.591  21.194  21.680 -0.1277  0.3541  0.0165
    3AIB   HB11   37  20.530  21.178  21.589 -0.4511  3.5595 -0.4492
    3AIB   HB12   38  20.605  21.302  21.701 -3.4849  0.6456  1.3588
    3AIB   HB13   39  20.525  21.159  21.763 -0.0267 -0.6862 -0.3162
    3AIB    CB2   40  20.674  20.961  21.681  0.1825  0.3060  0.3476
    3AIB   HB21   41  20.588  20.950  21.612  1.0957 -1.3051 -0.6030
    3AIB   HB22   42  20.625  20.938  21.778  1.7353  1.7552  1.5420
    3AIB   HB23   43  20.760  20.893  21.661  0.3869  0.8175 -0.6241
    3AIB      C   44  20.801  21.160  21.580  0.3829 -0.7023 -0.1480
    3AIB      O   45  20.835  21.092  21.488  0.3335 -0.0547  0.0694
    4AIB      N   46  20.845  21.289  21.588  0.0410 -0.0925 -0.0820
    4AIB     HN   47  20.811  21.341  21.666 -1.8513 -1.8037  0.3062
    4AIB     CA   48  20.924  21.358  21.487 -0.0838 -0.7096 -0.3835
    4AIB    CB1   49  20.930  21.500  21.541 -0.2099  0.4829  0.6124
    4AIB   HB11   50  20.994  21.569  21.482 -1.2350  1.1268  0.2160
    4AIB   HB12   51  20.983  21.505  21.639 -0.5324 -0.5090  0.8468
    4AIB   HB13   52  20.826  21.537  21.553 -0.4439  0.5805 -1.4129
    4AIB    CB2   53  20.856  21.359  21.346 -0.7539 -0.7838 -0.0159
    4AIB   HB21   54  20.755  21.403  21.351  0.3589  1.8578  0.8576
    4AIB   HB22   55  20.853  21.251  21.321  1.6572 -0.3950 -2.4477
    4AIB   HB23   56  20.919  21.424  21.281 -0.1966  0.6776  1.9247
    4AIB      C   57  21.063  21.293  21.478  0.8221  0.0413  0.0567
    4AIB      O   58  21.104  21.250  21.369  0.3375  0.4168 -0.3963
    5AIB      N   59  21.133  21.284  21.590  0.4182 -1.0422 -0.5648
    5AIB     HN   60  21.090  21.329  21.668  2.8343 -1.1345  0.9840
    5AIB     CA   61  21.260  21.219  21.610 -0.7898 -0.3963 -0.4308
    5AIB    CB1   62  21.272  21.195  21.763 -0.3217 -0.3688  0.3460
    5AIB   HB11   63  21.255  21.295  21.810  1.2150 -0.4945  1.2423
    5AIB   HB12   64  21.368  21.158  21.804  0.1854 -1.1372 -1.4586
    5AIB   HB13   65  21.188  21.133  21.800  0.5085 -1.3796  0.5603
    5AIB    CB2   66  21.367  21.315  21.563  0.4176 -0.2230  0.6535
    5AIB   HB21   67  21.341  21.414  21.607 -1.9594 -1.5586  2.4984
    5AIB   HB22   68  21.360  21.318  21.453  0.9514 -1.4533  0.5645
    5AIB   HB23   69  21.466  21.268  21.581  0.9449  0.9056  0.8307
    5AIB      C   70  21.281  21.076  21.540 -0.4542 -0.3756  0.2585
    5AIB      O   71  21.369  21.054  21.463 -0.3653 -0.2739  0.0434
    6AIB      N   72  21.188  20.978  21.558 -0.0105 -0.3768 -0.0238
    6AIB     HN   73  21.108  20.995  21.616 -0.8720  0.8708 -1.4694
    6AIB     CA   74  21.179  20.848  21.495  0.5322 -0.3140 -0.0038
    6AIB    CB1   75  21.049  20.782  21.548  0.1882  0.4491 -0.6191
    6AIB   HB11   76  21.032  20.683  21.503  1.0992 -0.4744  0.9783
    6AIB   HB12   77  20.958  20.846  21.556  0.6447  0.8983  1.8132
    6AIB   HB13   78  21.074  20.762  21.655  3.0149  0.9843 -1.0912
    6AIB    CB2   79  21.294  20.756  21.531 -0.6276  0.3975  0.6493
    6AIB   HB21   80  21.385  20.796  21.481 -1.1189 -0.5252 -1.0425
    6AIB   HB22   81  21.276  20.655  21.488 -1.5580  1.6012 -2.0098
    6AIB   HB23   82  21.299  20.749  21.642 -0.1223 -1.6362  0.5397
    6AIB      C   83  21.159  20.860  21.340 -0.5074 -0.2261  0.4757
    6AIB      O   84  21.230  20.783  21.271  0.0443 -0.5686  0.5710
    7AIB      N   85  21.071  20.948  21.288 -0.1579  0.6831  0.1058
    7AIB     HN   86  21.017  21.009  21.346  0.4314 -0.6917  2.2870
    7AIB     CA   87  21.046  20.962  21.146 -0.4739  0.1772 -0.5110
    7AIB    CB1   88  20.931  21.057  21.141 -0.7812 -0.1370 -0.1953
    7AIB   HB11   89  20.970  21.158  21.169 -0.9700 -0.3842  1.0115
    7AIB   HB12   90  20.846  21.043  21.212  0.3420 -1.7166  0.8957
    7AIB   HB13   91  20.890  21.068  21.039 -0.5446  1.8554 -0.1214
    7AIB    CB2   92  21.000  20.828  21.089 -0.1635 -0.1261 -0.2275
    7AIB   HB21   93  20.921  20.787  21.156  1.3433 -0.1037  1.6352
    7AIB   HB22   94  21.082  20.754  21.078 -0.7993 -0.8201 -0.3685
    7AIB   HB23   95  20.948  20.844  20.992  0.3268  1.6565 -0.2449
    7AIB      C   96  21.171  21.014  21.070  0.3041 -0.5703  0.0672
    7AIB      O   97  21.200  20.966  20.958  0.3436  0.6306  0.4967
    8AIB      N   98  21.252  21.114  21.128  0.5939 -0.5546  0.5865
    8AIB     HN   99  21.223  21.152  21.216 -0.5859  0.2094 -0.1132
    8AIB     CA  100  21.363  21.188  21.070  0.3906 -0.2328 -0.1994
    8AIB    CB1  101  21.411  21.292  21.175 -0.5212 -0.2175  0.5525
    8AIB   HB11  102  21.459  21.243  21.263  0.5515 -0.3005 -0.0485
    8AIB   HB12  103  21.327  21.362  21.195  0.5786  0.8889  1.5350
    8AIB   HB13  104  21.488  21.355  21.125 -1.3436 -0.0002 -0.4753
    8AIB    CB2  105  21.318  21.260  20.942 -0.2759 -0.1060 -0.7298
    8AIB   HB21  106  21.305  21.186  20.861 -0.9669 -0.0250 -0.6914
    8AIB   HB22  107  21.394  21.337  20.915 -0.2621 -0.0459 -0.5376
    8AIB   HB23  108  21.231  21.325  20.963 -0.2131  0.1749 -1.3145
    8AIB      C  109  21.484  21.097  21.047 -0.2518 -0.1121  0.1763
    8AIB      O  110  21.555  21.097  20.948  0.2520  0.2497  0.4896
    9AIB      N  111  21.503  21.002  21.148  0.0303  0.2382  0.4251
    9AIB     HN  112  21.450  21.015  21.231 -1.0400 -1.0769 -0.0045
    9AIB     CA  113  21.596  20.898  21.137 -0.1552  0.4811 -0.6263
    9AIB    CB1  114  21.590  20.832  21.279  0.1416 -0.5137 -0.5787
    9AIB   HB11  115  21.494  20.776  21.278  0.8661 -1.7827 -1.5232
    9AIB   HB12  116  21.589  20.913  21.354  0.2121  2.0268 -3.1303
    9AIB   HB13  117  21.681  20.774  21.303 -0.3403 -0.5369  1.3605
    9AIB    CB2  118  21.747  20.943  21.120  0.2204 -0.3985 -0.1490
    9AIB   HB21  119  21.759  20.962  21.011 -2.7412  3.1445 -0.0381
    9AIB   HB22  120  21.818  20.861  21.140  1.2140  0.2284 -1.0283
    9AIB   HB23  121  21.768  21.038  21.173 -1.2582  0.1651 -0.5373
    9AIB      C  122  21.546  20.788  21.034  0.3959 -0.1013 -0.5409
    9AIB      O  123  21.623  20.723  20.962 -0.0035  0.1474  0.9021
    9AIB     NT  124  21.412  20.761  21.035  0.5048  0.3611  0.1245
    9AIB    HNT  125  21.359  20.811  21.104  3.6811  2.1957  1.4123
    9AIB    CAT  126  21.356  20.646  20.953  0.1461  0.0598 -0.4548
    9AIB    HT1  127  21.340  20.680  20.849  2.5839  2.4482 -0.1541
    9AIB    HT2  128  21.268  20.597  20.999  2.0452 -3.3632 -0.1516
    9AIB    HT3  129  21.424  20.558  20.955 -2.5160 -2.1658 -1.7991
  42.09246  42.09246  42.09246
