Protein
   42
    1ACE   HH31    1   9.574   7.772  11.438  1.9529  0.0976 -0.1515
    1ACE    CH3    2   9.579   7.868  11.386 -0.1198  0.0730 -0.4378
    1ACE   HH32    3   9.542   7.866  11.284  4.1178 -1.4852 -2.1597
    1ACE   HH33    4   9.687   7.879  11.386 -0.2097  0.9909 -0.3831
    1ACE      C    5   9.514   7.991  11.456 -0.1740 -0.2832  0.3361
    1ACE      O    6   9.578   8.095  11.456 -0.0506  0.7554 -0.3801
    2ALA      N    7   9.392   7.986  11.510 -0.3402 -0.0433  0.0897
    2ALA      H    8   9.357   7.892  11.503  0.2045 -0.1867 -0.8088
    2ALA     CA    9   9.328   8.078  11.609  0.4377 -0.7046  0.6174
    2ALA     HA   10   9.229   8.094  11.567  1.1204  2.2148 -0.1417
    2ALA     CB   11   9.317   8.002  11.738  0.2999 -0.0119  0.3294
    2ALA    HB1   12   9.263   7.910  11.717 -0.2118  0.6825 -1.5985
    2ALA    HB2   13   9.418   7.981  11.773 -0.3263 -2.7246  0.7604
    2ALA    HB3   14   9.271   8.072  11.808 -0.0686  1.4459 -1.2822
    2ALA      C   15   9.380   8.227  11.615  0.7266  0.5995 -0.2273
    2ALA      O   16   9.412   8.272  11.728  0.1906  0.0984  0.2373
    3ALA      N   17   9.385   8.294  11.497 -0.1892 -0.5127  0.3831
    3ALA      H   18   9.362   8.237  11.417 -2.6128  0.8489 -0.0053
    3ALA     CA   19   9.416   8.438  11.483  0.7504  0.7254 -0.0897
    3ALA     HA   20   9.384   8.467  11.383 -1.8826 -2.1692 -0.2080
    3ALA     CB   21   9.312   8.529  11.562  0.0342  0.0933 -0.3321
    3ALA    HB1   22   9.215   8.512  11.515  0.9985 -0.6759 -2.1637
    3ALA    HB2   23   9.295   8.491  11.663  0.2775 -1.0005 -0.6833
    3ALA    HB3   24   9.348   8.631  11.570  1.9660 -0.4366 -1.7191
    3ALA      C   25   9.565   8.470  11.510  0.0674 -0.5546 -0.2716
    3ALA      O   26   9.599   8.583  11.530  0.5472 -0.1227 -0.1406
    4ALA      N   27   9.647   8.370  11.507  0.0425  0.1153 -0.6522
    4ALA      H   28   9.604   8.279  11.500 -0.6769  0.2387  1.4101
    4ALA     CA   29   9.792   8.368  11.520  0.4846 -0.3946 -0.3996
    4ALA     HA   30   9.818   8.267  11.491  0.1972  0.2539 -3.2367
    4ALA     CB   31   9.858   8.447  11.411 -0.6669 -0.2632  0.0494
    4ALA    HB1   32   9.903   8.530  11.466  1.5766 -0.9139 -0.6488
    4ALA    HB2   33   9.936   8.387  11.365  0.6278  2.1674 -1.1626
    4ALA    HB3   34   9.792   8.498  11.341  0.7831  0.4068 -0.8793
    4ALA      C   35   9.844   8.383  11.665 -0.6369 -0.0444  0.3527
    4ALA      O   36   9.935   8.303  11.713  0.7592  0.3437  0.7906
    5NME      N   37   9.802   8.490  11.741 -0.3317 -0.1269  0.1627
    5NME      H   38   9.725   8.545  11.703 -0.2139 -0.9332 -1.3360
    5NME    CH3   39   9.840   8.528  11.875 -0.3027  0.1079  0.0045
    5NME   HH31   40   9.909   8.455  11.917 -0.6373 -0.3764 -0.2976
    5NME   HH32   41   9.891   8.625  11.878  2.2318 -1.1517 -0.1811
    5NME   HH33   42   9.753   8.540  11.940  0.9274 -0.2217  1.8296
  20.91516  20.91516  20.91516
