Protein
   32
    1ACE   HH31    1  14.443   8.982   2.219  0.1352  2.4918  2.0709
    1ACE    CH3    2  14.466   8.898   2.285 -0.4448 -0.4181 -1.1405
    1ACE   HH32    3  14.463   8.943   2.384  0.6103  1.2779 -1.8191
    1ACE   HH33    4  14.566   8.858   2.274 -0.3458 -1.4181  2.3102
    1ACE      C    5  14.355   8.795   2.273  0.6154  0.7380 -0.3983
    1ACE      O    6  14.255   8.829   2.214 -0.0534 -0.1945  0.2613
    2ALA      N    7  14.363   8.682   2.342  0.5859  0.1395 -0.0584
    2ALA      H    8  14.451   8.668   2.391 -0.2110 -1.0163  1.0955
    2ALA     CA    9  14.263   8.574   2.336  0.2563  0.6152  0.6520
    2ALA     HA   10  14.165   8.621   2.332  0.0825  0.1618 -2.6117
    2ALA     CB   11  14.264   8.510   2.195 -0.5594  0.7103 -0.0299
    2ALA    HB1   12  14.196   8.426   2.182  1.2403 -0.3972 -4.2527
    2ALA    HB2   13  14.245   8.578   2.111 -1.2057 -0.6484 -1.0120
    2ALA    HB3   14  14.364   8.473   2.170 -0.1426 -0.3164  2.8616
    2ALA      C   15  14.272   8.473   2.449  0.8767  0.0073  0.3713
    2ALA      O   16  14.384   8.432   2.488 -0.1275  0.5874  0.2627
    3ALA      N   17  14.154   8.436   2.507  0.4750 -0.6634 -0.0204
    3ALA      H   18  14.066   8.472   2.473 -0.5556 -1.7215  1.4044
    3ALA     CA   19  14.127   8.355   2.622  0.4272 -0.0796  0.0390
    3ALA     HA   20  14.019   8.349   2.623  0.3161 -0.1714 -2.9984
    3ALA     CB   21  14.165   8.204   2.605  0.8763  0.2389 -0.3214
    3ALA    HB1   22  14.272   8.206   2.583  0.8306 -1.2646 -0.8091
    3ALA    HB2   23  14.142   8.147   2.695 -0.7988  0.8101 -0.3560
    3ALA    HB3   24  14.130   8.165   2.510  0.0398  2.9161 -1.1800
    3ALA      C   25  14.156   8.419   2.758 -0.5593 -0.2119  0.0933
    3ALA      O   26  14.073   8.449   2.843 -0.1013 -0.0052 -0.3123
    4NME      N   27  14.290   8.431   2.772 -0.0184 -0.4846  0.0064
    4NME      H   28  14.342   8.409   2.688  0.7725  1.7910 -0.1689
    4NME    CH3   29  14.350   8.412   2.898  0.1522  0.0544  0.0604
    4NME   HH31   30  14.411   8.322   2.885  0.8898  0.6927 -1.0100
    4NME   HH32   31  14.413   8.492   2.938  1.1077 -1.2944  1.4116
    4NME   HH33   32  14.279   8.392   2.978 -0.2345 -0.8900 -0.4916
  20.99041  20.99041  20.99041
