Protein
   22
    1ACE   HH31    1   3.784   2.061   4.026  2.4806  1.9722 -2.1007
    1ACE    CH3    2   3.862   2.065   4.102  0.1649 -0.1095  0.5857
    1ACE   HH32    3   3.957   2.086   4.054  0.3641 -0.7803  0.6732
    1ACE   HH33    4   3.875   1.970   4.153 -0.5558  0.2186  1.4330
    1ACE      C    5   3.826   2.177   4.195 -0.0405 -0.6296 -0.4317
    1ACE      O    6   3.823   2.153   4.315  0.4659  0.2152 -0.2231
    2ALA      N    7   3.807   2.298   4.146 -0.1254  0.0220  0.1404
    2ALA      H    8   3.839   2.318   4.052  0.8563  2.2563  0.8759
    2ALA     CA    9   3.756   2.420   4.216  0.5226  0.1155  0.0126
    2ALA     HA   10   3.686   2.471   4.150  1.0832 -0.5174 -1.0966
    2ALA     CB   11   3.668   2.394   4.342  0.1951 -0.0018  0.5557
    2ALA    HB1   12   3.726   2.347   4.421  1.5455  0.5261 -0.0833
    2ALA    HB2   13   3.617   2.487   4.371  0.3724 -0.4506  2.4551
    2ALA    HB3   14   3.594   2.316   4.328 -0.4030  0.7643 -0.6763
    2ALA      C   15   3.869   2.527   4.236  0.1813  0.2281  0.1210
    2ALA      O   16   3.917   2.571   4.133  0.2019 -0.0577 -0.1473
    3NME      N   17   3.907   2.574   4.356  0.0536 -0.2078  0.0638
    3NME      H   18   3.845   2.554   4.434  1.9837  0.7302  1.9441
    3NME    CH3   19   3.993   2.690   4.371  0.1024 -0.1086  0.4542
    3NME   HH31   20   4.054   2.668   4.458 -0.5033  1.6112  1.3523
    3NME   HH32   21   4.058   2.695   4.283  0.6327  0.6584  0.8723
    3NME   HH33   22   3.940   2.782   4.394  2.2492  0.8679  1.8017
  10.72160  10.72160  10.72160
