Protein
   32
    1ACE   HH31    1   9.831  11.598   4.884 -0.0944 -0.0787 -0.4003
    1ACE    CH3    2   9.746  11.592   4.815 -0.3429 -0.0403 -0.1002
    1ACE   HH32    3   9.783  11.575   4.714 -0.1256  0.1475 -0.0554
    1ACE   HH33    4   9.685  11.682   4.808 -1.5739 -0.9351 -1.4519
    1ACE      C    5   9.651  11.481   4.846  0.2093  0.3615 -0.2402
    1ACE      O    6   9.600  11.409   4.759 -0.0903  0.0539 -0.3832
    2ALA      N    7   9.640  11.444   4.976 -0.0477  0.5621 -0.1510
    2ALA      H    8   9.692  11.495   5.046  1.6230 -2.9473  1.4343
    2ALA     CA    9   9.564  11.328   5.033 -0.8355  0.5286 -0.2360
    2ALA     HA   10   9.487  11.298   4.962 -0.1247  0.1771 -0.8825
    2ALA     CB   11   9.660  11.205   5.067  0.1490 -0.4865  0.2909
    2ALA    HB1   12   9.599  11.137   5.127 -0.1253  0.4386  1.0898
    2ALA    HB2   13   9.707  11.163   4.978 -1.6395 -1.1583 -0.3661
    2ALA    HB3   14   9.744  11.232   5.132  0.6254 -0.0466 -0.4893
    2ALA      C   15   9.480  11.368   5.161  0.0110 -0.2986 -0.9090
    2ALA      O   16   9.394  11.297   5.212  0.4431  0.4394 -0.4607
    3ALA      N   17   9.522  11.482   5.226 -0.6790  0.0082 -0.6557
    3ALA      H   18   9.600  11.533   5.187  0.1804  1.1748  2.2822
    3ALA     CA   19   9.478  11.545   5.353  0.4057  0.1029  0.6059
    3ALA     HA   20   9.370  11.560   5.359  0.7589  2.4129  2.6009
    3ALA     CB   21   9.508  11.450   5.467  0.2489 -0.8183 -0.0767
    3ALA    HB1   22   9.616  11.444   5.473  0.7322  3.7910 -0.4449
    3ALA    HB2   23   9.467  11.500   5.555 -1.4792  0.6765 -1.6556
    3ALA    HB3   24   9.461  11.352   5.459 -2.6945  0.5114 -0.3380
    3ALA      C   25   9.555  11.678   5.374 -0.2000  0.5941 -0.4993
    3ALA      O   26   9.636  11.716   5.292 -0.0741 -1.0225  0.4719
    4NME      N   27   9.545  11.737   5.493 -0.0977  0.0945 -0.5937
    4NME      H   28   9.478  11.697   5.558 -0.2641  1.0538 -0.1546
    4NME    CH3   29   9.638  11.842   5.538  0.5826 -0.4460 -0.7538
    4NME   HH31   30   9.605  11.937   5.498 -0.3961 -0.7589 -0.7055
    4NME   HH32   31   9.631  11.851   5.647 -2.1099  0.7676 -0.9343
    4NME   HH33   32   9.743  11.823   5.517  0.6270 -0.8692 -0.1828
  20.99041  20.99041  20.99041
