Protein
   42
    1ACE   HH31    1   9.384  10.123  10.680  0.7364 -2.8835 -0.3990
    1ACE    CH3    2   9.463  10.147  10.610 -0.4347 -0.0009 -0.8827
    1ACE   HH32    3   9.471  10.060  10.546  1.5610 -0.7055  0.2271
    1ACE   HH33    4   9.557  10.165  10.662 -0.7547 -1.1466  0.1168
    1ACE      C    5   9.423  10.268  10.533 -0.1520 -0.3355  0.1248
    1ACE      O    6   9.379  10.362  10.593 -0.3265  0.4462 -0.0620
    2ALA      N    7   9.445  10.269  10.400 -0.4113  0.2334  0.7004
    2ALA      H    8   9.500  10.190  10.370 -0.0529 -0.1065  2.1740
    2ALA     CA    9   9.396  10.367  10.302 -0.1670 -0.3893  0.4146
    2ALA     HA   10   9.466  10.379  10.220  0.5512 -0.0022  1.0617
    2ALA     CB   11   9.270  10.313  10.232  0.1569  0.5383  0.3558
    2ALA    HB1   12   9.190  10.297  10.305 -0.0342 -0.8752 -0.1392
    2ALA    HB2   13   9.235  10.391  10.164 -1.8024  1.7977  2.6047
    2ALA    HB3   14   9.292  10.219  10.181  0.0976  0.3439  0.6841
    2ALA      C   15   9.376  10.505  10.363  0.4631  0.4044 -0.6339
    2ALA      O   16   9.261  10.538  10.387 -0.0448  0.4567 -0.2962
    3ALA      N   17   9.478  10.583  10.392 -0.2676  0.4441  0.1569
    3ALA      H   18   9.441  10.670  10.429 -0.2893  0.2136  0.6890
    3ALA     CA   19   9.627  10.581  10.380  0.7128 -0.6794  0.5558
    3ALA     HA   20   9.638  10.634  10.286  2.3119 -0.9534  0.5762
    3ALA     CB   21   9.683  10.662  10.500 -0.0287 -0.5295  0.1186
    3ALA    HB1   22   9.664  10.602  10.589  0.0269 -2.0428 -0.8477
    3ALA    HB2   23   9.791  10.676  10.489 -0.1526  1.6418  1.1953
    3ALA    HB3   24   9.630  10.757  10.508 -0.4109 -0.7270 -0.0507
    3ALA      C   25   9.698  10.452  10.345 -0.0081  0.1442  0.7794
    3ALA      O   26   9.707  10.431  10.227  0.0157  0.2769  0.0687
    4ALA      N   27   9.762  10.384  10.433  0.0669 -0.1062 -0.0375
    4ALA      H   28   9.741  10.409  10.529 -1.0777 -1.2240  0.0311
    4ALA     CA   29   9.838  10.257  10.414 -0.1382 -0.0294 -0.4988
    4ALA     HA   30   9.943  10.278  10.393  0.0828 -0.7697 -0.1638
    4ALA     CB   31   9.839  10.169  10.535 -0.6894 -0.0062 -0.4627
    4ALA    HB1   32   9.740  10.150  10.576 -0.9151 -0.6867 -1.2847
    4ALA    HB2   33   9.886  10.072  10.517 -0.8040  0.1985 -1.9606
    4ALA    HB3   34   9.901  10.211  10.615 -2.4974  2.8851 -0.4479
    4ALA      C   35   9.786  10.173  10.287 -0.2138 -0.3745  0.0538
    4ALA      O   36   9.680  10.104  10.296  0.0403 -0.3587  0.0990
    5NME      N   37   9.841  10.193  10.167 -0.4311  0.8006 -0.8362
    5NME      H   38   9.911  10.265  10.157 -0.4339  0.7783 -1.0607
    5NME    CH3   39   9.800  10.118  10.053  1.3144  0.7902 -0.2772
    5NME   HH31   40   9.838  10.153   9.957 -0.7871 -0.9606 -1.8457
    5NME   HH32   41   9.851  10.022  10.060  1.2889  0.4474 -3.1875
    5NME   HH33   42   9.692  10.121  10.038  1.2082 -0.9428  0.0316
  20.91516  20.91516  20.91516
