Protein
   42
    1ACE   HH31    1  17.461   9.325  13.587  0.2538 -0.1092  0.9176
    1ACE    CH3    2  17.390   9.308  13.667 -0.1683 -0.8183  0.3957
    1ACE   HH32    3  17.353   9.402  13.707  3.4067  1.8166 -1.9631
    1ACE   HH33    4  17.446   9.247  13.739 -0.5392  0.5409  1.8942
    1ACE      C    5  17.271   9.231  13.601  0.3567  0.3882  0.1389
    1ACE      O    6  17.218   9.128  13.642  0.1504  0.4623 -0.4333
    2ALA      N    7  17.218   9.291  13.500 -0.1324 -0.2756 -0.0491
    2ALA      H    8  17.267   9.369  13.460  1.8235 -2.4048 -2.1837
    2ALA     CA    9  17.112   9.244  13.417  1.1692 -0.4261  0.2198
    2ALA     HA   10  17.050   9.178  13.478  0.4449  1.0084  1.0551
    2ALA     CB   11  17.034   9.361  13.352 -0.5079  0.1364 -0.4691
    2ALA    HB1   12  16.989   9.426  13.427  0.4358 -0.0377  0.2771
    2ALA    HB2   13  17.099   9.427  13.295 -0.6119  1.3683  0.7910
    2ALA    HB3   14  16.952   9.332  13.286  0.8534 -3.8602 -0.6767
    2ALA      C   15  17.183   9.147  13.317  0.2778  0.5480 -0.0156
    2ALA      O   16  17.224   9.183  13.210 -0.3504 -0.4963 -0.0402
    3ALA      N   17  17.178   9.013  13.342  0.2155 -0.1253 -0.1058
    3ALA      H   18  17.124   8.982  13.421  0.0162 -1.5761 -0.7851
    3ALA     CA   19  17.236   8.906  13.261 -0.2080  0.1500 -0.0144
    3ALA     HA   20  17.218   8.816  13.320  2.8297 -0.1801  0.5051
    3ALA     CB   21  17.151   8.878  13.138  0.5732  0.3276  0.6665
    3ALA    HB1   22  17.192   8.796  13.079 -0.5255 -1.4100  2.2232
    3ALA    HB2   23  17.049   8.855  13.167 -0.1194  0.6762 -1.3518
    3ALA    HB3   24  17.147   8.961  13.068 -0.9063 -0.6126 -0.4135
    3ALA      C   25  17.389   8.924  13.240 -0.5630  0.3183 -0.8721
    3ALA      O   26  17.463   8.916  13.340 -0.4468  0.1731  0.0133
    4ALA      N   27  17.433   8.965  13.119  0.6381  0.2222  0.4969
    4ALA      H   28  17.367   8.974  13.043 -0.4390 -0.8935  1.2716
    4ALA     CA   29  17.569   8.999  13.074  0.5923  0.3590 -0.5524
    4ALA     HA   30  17.626   8.922  13.126 -0.4771  0.1754  0.4095
    4ALA     CB   31  17.595   8.980  12.921 -0.3069 -0.1143 -0.2141
    4ALA    HB1   32  17.557   8.886  12.881 -0.2307  0.4813 -1.7863
    4ALA    HB2   33  17.543   9.056  12.863  1.6259  0.6443 -1.0095
    4ALA    HB3   34  17.702   8.989  12.906 -0.6432  3.5455 -1.5556
    4ALA      C   35  17.619   9.138  13.127 -0.3779 -0.0906 -0.8107
    4ALA      O   36  17.674   9.219  13.057  0.6532 -0.2588  0.6800
    5NME      N   37  17.594   9.160  13.256  0.7727 -0.5165 -0.7530
    5NME      H   38  17.533   9.097  13.306 -0.2902  0.0832 -1.2732
    5NME    CH3   39  17.622   9.285  13.327  0.0728  0.5156 -0.5696
    5NME   HH31   40  17.711   9.340  13.296  1.2856 -0.8106  0.4295
    5NME   HH32   41  17.536   9.352  13.322 -0.5958 -0.2305  0.3906
    5NME   HH33   42  17.637   9.273  13.434  0.3259  0.2813 -0.6279
  20.91516  20.91516  20.91516
