Protein
   32
    1ACE   HH31    1  13.022  14.047  11.638 -0.5941 -0.8150 -0.3288
    1ACE    CH3    2  13.096  14.064  11.559 -0.1996 -0.4437  0.1002
    1ACE   HH32    3  13.051  14.121  11.478  0.9370  2.9602  1.6531
    1ACE   HH33    4  13.128  13.962  11.539 -2.9302 -0.8925 -2.9545
    1ACE      C    5  13.210  14.163  11.607  0.3903  0.3299 -0.6330
    1ACE      O    6  13.219  14.274  11.558  0.1207 -0.0857  0.0529
    2ALA      N    7  13.294  14.106  11.693 -0.1674 -0.1916  1.3307
    2ALA      H    8  13.286  14.006  11.710  0.5290 -0.6152 -0.6372
    2ALA     CA    9  13.411  14.170  11.745  0.0605  0.0276  0.5159
    2ALA     HA   10  13.448  14.114  11.831  1.5669  0.4736  0.1866
    2ALA     CB   11  13.523  14.161  11.638 -0.1087  0.4398 -0.3360
    2ALA    HB1   12  13.490  14.195  11.540  1.7021  0.9515 -0.7995
    2ALA    HB2   13  13.606  14.226  11.668 -1.5442  1.9537  0.5602
    2ALA    HB3   14  13.550  14.057  11.623  0.9004  0.5472  0.6478
    2ALA      C   15  13.389  14.309  11.813 -0.1098 -0.0776  0.0982
    2ALA      O   16  13.471  14.328  11.907  0.7684 -0.8741 -0.3734
    3ALA      N   17  13.284  14.388  11.787  0.2435 -0.0023  0.5008
    3ALA      H   18  13.228  14.364  11.707 -1.6134 -0.8108  1.9833
    3ALA     CA   19  13.249  14.497  11.881  0.8894 -0.0341  0.3822
    3ALA     HA   20  13.327  14.574  11.881 -0.1763  1.0842 -0.0075
    3ALA     CB   21  13.135  14.576  11.821  0.4790  0.1609  0.1966
    3ALA    HB1   22  13.043  14.532  11.859  0.1568 -0.0310 -0.7803
    3ALA    HB2   23  13.134  14.675  11.868  1.7951 -0.4320  1.5395
    3ALA    HB3   24  13.148  14.579  11.713 -0.7689 -0.2173  0.0318
    3ALA      C   25  13.229  14.453  12.025 -0.2268  0.4072 -0.6074
    3ALA      O   26  13.124  14.392  12.057  0.8070  0.1445  0.1364
    4NME      N   27  13.324  14.489  12.112  1.0319 -0.0140 -0.6630
    4NME      H   28  13.410  14.516  12.068  0.9717 -0.2089 -0.8986
    4NME    CH3   29  13.325  14.455  12.257  0.5415  0.6037  0.2367
    4NME   HH31   30  13.417  14.400  12.277 -0.0803 -1.0911 -1.2741
    4NME   HH32   31  13.345  14.547  12.312  0.7008  1.2429 -0.8709
    4NME   HH33   32  13.237  14.396  12.286  0.0821  0.9515 -0.4131
  20.99041  20.99041  20.99041
