Protein
   32
    1ACE   HH31    1   3.874  11.756  10.382 -0.0127  3.4003 -1.0259
    1ACE    CH3    2   3.935  11.798  10.462  0.7531  0.3364  0.1449
    1ACE   HH32    3   4.034  11.764  10.433 -0.3259 -1.7858 -1.3425
    1ACE   HH33    4   3.921  11.761  10.563 -2.4531 -1.5480 -0.8374
    1ACE      C    5   3.917  11.944  10.450 -0.3777 -0.1017  0.3490
    1ACE      O    6   3.817  11.989  10.389 -0.3773 -0.1293  0.2621
    2ALA      N    7   4.004  12.027  10.511 -0.0291 -0.2303  0.3642
    2ALA      H    8   4.083  11.982  10.555 -0.3017 -1.4918 -0.4118
    2ALA     CA    9   3.983  12.167  10.551 -0.2260  0.0265 -0.5930
    2ALA     HA   10   3.888  12.169  10.604 -0.0182 -0.9489 -0.1577
    2ALA     CB   11   4.102  12.200  10.647  0.9389  0.5918  0.5212
    2ALA    HB1   12   4.110  12.137  10.736  1.2112  1.8964  1.4436
    2ALA    HB2   13   4.187  12.177  10.582 -0.0625  0.1481 -0.6740
    2ALA    HB3   14   4.102  12.307  10.670 -0.9199  0.9143 -0.7205
    2ALA      C   15   3.968  12.275  10.433  0.0850  0.2842  0.2695
    2ALA      O   16   3.943  12.388  10.460  1.0790  0.3295  0.3571
    3ALA      N   17   3.981  12.233  10.306  0.4996  0.6657 -0.0832
    3ALA      H   18   3.998  12.134  10.304 -0.1983  0.5003  0.9045
    3ALA     CA   19   3.942  12.296  10.180 -0.2561  0.1840  0.3036
    3ALA     HA   20   3.969  12.401  10.190  2.6671 -0.2670 -1.5786
    3ALA     CB   21   4.045  12.253  10.081  0.5775  0.0508  0.2921
    3ALA    HB1   22   4.146  12.258  10.123 -0.0223 -0.7152  1.9157
    3ALA    HB2   23   4.032  12.157  10.031  2.7118  0.0960 -0.5162
    3ALA    HB3   24   4.041  12.317   9.993 -3.0407 -1.4741 -0.8640
    3ALA      C   25   3.795  12.291  10.130  0.0116 -0.1030 -0.0512
    3ALA      O   26   3.736  12.393  10.083  0.1273  0.4183 -0.5927
    4NME      N   27   3.741  12.167  10.115 -0.3287 -0.4498  0.4157
    4NME      H   28   3.775  12.100  10.183 -1.6215  0.2858  1.8559
    4NME    CH3   29   3.610  12.143  10.047 -0.2743 -0.4919  0.5601
    4NME   HH31   30   3.607  12.049   9.991 -0.6203 -0.1140 -0.0769
    4NME   HH32   31   3.529  12.137  10.120 -0.5856  1.7230  0.4789
    4NME   HH33   32   3.591  12.227   9.980 -1.0307  0.1347  1.5348
  20.99041  20.99041  20.99041
