Protein
   42
    1ACE   HH31    1  12.540   6.333  19.163  0.7812  0.5732 -0.1417
    1ACE    CH3    2  12.443   6.304  19.123  0.5574  0.3226  0.5604
    1ACE   HH32    3  12.434   6.303  19.014  2.5287  0.1523  0.3714
    1ACE   HH33    4  12.373   6.382  19.156  2.2744  3.1584 -1.9214
    1ACE      C    5  12.412   6.167  19.176  0.4891  0.6047  0.1729
    1ACE      O    6  12.415   6.074  19.097 -0.2655  0.2903  0.0433
    2ALA      N    7  12.400   6.166  19.312 -0.1702 -0.1287  0.0059
    2ALA      H    8  12.404   6.254  19.362  0.0011  0.7024 -1.4177
    2ALA     CA    9  12.372   6.051  19.394  0.4293  0.5133 -0.2847
    2ALA     HA   10  12.471   6.014  19.420  0.3803 -2.1089 -3.2370
    2ALA     CB   11  12.281   6.104  19.516 -0.2119 -0.5296  0.0840
    2ALA    HB1   12  12.337   6.169  19.584  0.3794 -0.7379 -0.2134
    2ALA    HB2   13  12.194   6.156  19.475 -0.7022 -0.6330  0.9609
    2ALA    HB3   14  12.241   6.019  19.571  0.1786 -0.3463  0.6589
    2ALA      C   15  12.308   5.930  19.318 -0.4602  0.6183  0.4939
    2ALA      O   16  12.200   5.943  19.269 -0.0312 -0.3993  0.3397
    3ALA      N   17  12.368   5.808  19.308 -0.0289 -0.7536  0.0079
    3ALA      H   18  12.318   5.732  19.264  1.8023 -2.4473  0.6563
    3ALA     CA   19  12.488   5.753  19.368  0.3715  0.2156 -0.3454
    3ALA     HA   20  12.466   5.756  19.475 -1.9530  2.3318 -0.7805
    3ALA     CB   21  12.492   5.612  19.309 -0.0245  0.1799  0.1532
    3ALA    HB1   22  12.582   5.574  19.358 -0.2821  1.7654  2.0209
    3ALA    HB2   23  12.414   5.539  19.329 -0.5778  1.1987  2.0150
    3ALA    HB3   24  12.484   5.622  19.201 -1.1554  0.3588  0.2401
    3ALA      C   25  12.624   5.820  19.340 -0.1126 -0.1002  0.6455
    3ALA      O   26  12.718   5.789  19.409  0.1166  0.0584 -0.6687
    4ALA      N   27  12.634   5.914  19.242 -0.1496  0.1694 -0.6140
    4ALA      H   28  12.548   5.935  19.193 -1.9381  0.4745  2.4243
    4ALA     CA   29  12.759   5.979  19.214  0.3902 -0.0028 -0.0526
    4ALA     HA   30  12.843   5.910  19.216  1.0285  0.7316  2.7907
    4ALA     CB   31  12.747   6.043  19.070 -0.1443 -0.6380  0.1766
    4ALA    HB1   32  12.657   6.102  19.058 -0.7982 -0.6830  3.8531
    4ALA    HB2   33  12.834   6.108  19.057 -1.8188  1.5457 -0.7058
    4ALA    HB3   34  12.751   5.963  18.995  2.2570  0.2514 -0.7681
    4ALA      C   35  12.795   6.083  19.315  0.4143  0.6372 -0.0009
    4ALA      O   36  12.781   6.203  19.282 -0.5837 -0.4092  0.5770
    5NME      N   37  12.863   6.045  19.426  0.8644 -0.2110 -0.0490
    5NME      H   38  12.853   5.947  19.447  2.5571 -0.5210 -0.4962
    5NME    CH3   39  12.908   6.121  19.541 -0.3148 -0.5182  0.7555
    5NME   HH31   40  13.002   6.169  19.517  0.4135 -2.4005 -0.3784
    5NME   HH32   41  12.830   6.188  19.577 -0.7152 -0.6617  0.1546
    5NME   HH33   42  12.918   6.043  19.617 -0.2863 -0.3737  0.8970
  20.91516  20.91516  20.91516
