Protein
   42
    1ACE   HH31    1   5.371   8.660   7.169 -1.9042 -0.0450  0.4025
    1ACE    CH3    2   5.425   8.711   7.249 -0.3309 -0.1347 -0.5712
    1ACE   HH32    3   5.518   8.760   7.219  1.6552 -0.6850  3.8574
    1ACE   HH33    4   5.447   8.640   7.328 -0.9910  1.5479  1.2176
    1ACE      C    5   5.329   8.818   7.304  0.1442  0.4553 -0.7252
    1ACE      O    6   5.377   8.923   7.354  0.1943 -0.1981 -0.1424
    2ALA      N    7   5.198   8.794   7.299 -0.2098  0.7763 -0.7937
    2ALA      H    8   5.180   8.694   7.301  0.5535  0.6210  1.0762
    2ALA     CA    9   5.094   8.872   7.361 -0.1125  0.2018  0.2452
    2ALA     HA   10   5.086   8.966   7.306  0.4626  0.6390  0.8643
    2ALA     CB   11   4.960   8.801   7.334  0.2969  0.1321  0.1058
    2ALA    HB1   12   4.952   8.782   7.227 -0.1968 -0.0699  0.1709
    2ALA    HB2   13   4.957   8.706   7.389  1.8393 -0.2452 -0.4207
    2ALA    HB3   14   4.878   8.869   7.359  0.8653  0.7078  0.4310
    2ALA      C   15   5.123   8.897   7.508 -0.1887  0.1879 -0.3026
    2ALA      O   16   5.124   8.807   7.595 -0.6520  0.1940 -0.1292
    3ALA      N   17   5.155   9.027   7.539 -0.1454  0.3946  0.6111
    3ALA      H   18   5.131   9.091   7.464 -0.3738 -0.4689 -0.0672
    3ALA     CA   19   5.195   9.096   7.665  0.1358  1.1909 -0.1318
    3ALA     HA   20   5.108   9.150   7.701 -0.5246 -0.0050  0.1307
    3ALA     CB   21   5.238   8.998   7.787 -0.3294 -0.2068  0.2371
    3ALA    HB1   22   5.333   8.951   7.760 -0.2013  0.3464 -0.3224
    3ALA    HB2   23   5.247   9.059   7.876  2.5871 -1.9420  1.2697
    3ALA    HB3   24   5.163   8.921   7.806 -1.3643 -0.1771 -3.1179
    3ALA      C   25   5.308   9.188   7.631 -0.0713 -0.6612  0.6894
    3ALA      O   26   5.287   9.310   7.634  0.6209 -0.2079  0.2748
    4ALA      N   27   5.420   9.138   7.579 -0.3081 -0.0046  0.0555
    4ALA      H   28   5.430   9.038   7.570 -2.8152 -0.3191  0.1279
    4ALA     CA   29   5.539   9.224   7.545 -0.5477 -0.7033  0.2421
    4ALA     HA   30   5.520   9.323   7.585 -0.9126  0.1287 -1.8793
    4ALA     CB   31   5.662   9.167   7.611  0.3099 -0.3755 -0.3348
    4ALA    HB1   32   5.660   9.166   7.720  1.4869 -1.5926 -0.2964
    4ALA    HB2   33   5.684   9.067   7.573  0.9869 -1.4210  2.5699
    4ALA    HB3   34   5.747   9.230   7.585 -0.5929  0.2746 -1.8994
    4ALA      C   35   5.566   9.251   7.396 -0.7795 -0.2643 -0.2661
    4ALA      O   36   5.650   9.335   7.361  0.1847 -0.5310  0.4442
    5NME      N   37   5.495   9.180   7.312 -0.1902  0.0066  0.0657
    5NME      H   38   5.437   9.107   7.350 -0.7427  0.5213  0.2419
    5NME    CH3   39   5.505   9.190   7.162 -0.4497  0.3432 -0.4885
    5NME   HH31   40   5.550   9.099   7.122  0.9473  0.6639  0.3228
    5NME   HH32   41   5.402   9.188   7.125 -1.1187  1.2780  1.2029
    5NME   HH33   42   5.561   9.278   7.133  0.1397  0.7973  1.8497
  20.91516  20.91516  20.91516
