Protein
   22
    1ACE   HH31    1   4.419   3.215   9.885 -1.9203 -0.9794 -1.8572
    1ACE    CH3    2   4.462   3.115   9.879  0.0261 -0.3286  0.1504
    1ACE   HH32    3   4.561   3.123   9.835  0.3017  1.3183  1.0094
    1ACE   HH33    4   4.401   3.061   9.806 -0.8635  1.5881 -0.6113
    1ACE      C    5   4.457   3.052  10.015  0.0397 -0.1520 -0.9005
    1ACE      O    6   4.351   3.067  10.093 -0.4937  0.0389 -0.0944
    2ALA      N    7   4.566   2.986  10.047 -0.5517 -0.4459  0.2487
    2ALA      H    8   4.627   2.968   9.969  0.1211 -0.0360  0.6706
    2ALA     CA    9   4.594   2.947  10.183 -0.2546  0.0857 -0.6680
    2ALA     HA   10   4.514   2.881  10.217 -0.2513  0.1732 -0.4871
    2ALA     CB   11   4.726   2.870  10.181  0.0746 -0.5028 -0.6468
    2ALA    HB1   12   4.735   2.823  10.083 -1.3507  1.0789 -1.5958
    2ALA    HB2   13   4.810   2.937  10.202 -0.4860  0.0714 -0.1939
    2ALA    HB3   14   4.729   2.788  10.253  1.1485  1.0954  1.2274
    2ALA      C   15   4.580   3.063  10.286 -0.7346 -0.4257 -0.4092
    2ALA      O   16   4.642   3.164  10.274 -0.2435 -0.5074 -0.4942
    3NME      N   17   4.521   3.035  10.398 -0.3943 -0.0637  0.2227
    3NME      H   18   4.490   2.939  10.412 -1.9539  0.1375 -1.5777
    3NME    CH3   19   4.511   3.132  10.508 -0.9073  0.3632 -0.2312
    3NME   HH31   20   4.553   3.088  10.598 -0.7503  1.2156  0.1188
    3NME   HH32   21   4.566   3.225  10.492 -0.4952  0.0114 -0.9302
    3NME   HH33   22   4.407   3.138  10.538 -0.3294  0.2047  1.8981
  10.72160  10.72160  10.72160
