Protein
   42
    1ACE   HH31    1   6.616  13.342  11.884  2.5171  0.4980  0.4823
    1ACE    CH3    2   6.613  13.440  11.837 -0.4650  0.4084  0.2180
    1ACE   HH32    3   6.691  13.443  11.760 -0.9012  1.2337 -0.2020
    1ACE   HH33    4   6.630  13.514  11.914  0.6635  0.4791 -0.0666
    1ACE      C    5   6.474  13.459  11.779 -0.3024  1.0979  0.3593
    1ACE      O    6   6.381  13.392  11.805  0.0909 -0.1811 -0.1570
    2ALA      N    7   6.470  13.563  11.700 -0.0525  0.1121 -0.4477
    2ALA      H    8   6.561  13.596  11.671 -0.4107 -0.2082 -2.0215
    2ALA     CA    9   6.349  13.621  11.640 -0.8351  0.0450 -0.0622
    2ALA     HA   10   6.265  13.611  11.709 -2.2513 -1.1676 -1.8499
    2ALA     CB   11   6.371  13.774  11.634 -0.2622  1.0089 -0.0184
    2ALA    HB1   12   6.270  13.814  11.623 -0.9230  1.3191  4.8388
    2ALA    HB2   13   6.409  13.804  11.731  1.0613 -0.1323 -0.1585
    2ALA    HB3   14   6.438  13.800  11.552  1.4679  3.0630  1.9171
    2ALA      C   15   6.330  13.553  11.512 -0.5097  0.8513  0.6015
    2ALA      O   16   6.419  13.550  11.428 -0.5544  0.3057  0.0640
    3ALA      N   17   6.211  13.506  11.471  0.1089  0.1728 -0.0164
    3ALA      H   18   6.208  13.468  11.378 -0.2289  2.1084 -0.8663
    3ALA     CA   19   6.092  13.493  11.555 -1.2854  0.1864 -0.1721
    3ALA     HA   20   6.107  13.551  11.646 -0.0890  1.4151 -1.0819
    3ALA     CB   21   5.969  13.557  11.496  0.3222  0.3468 -0.1461
    3ALA    HB1   22   5.952  13.500  11.405 -0.8666  1.4884 -0.6546
    3ALA    HB2   23   5.888  13.543  11.567  0.0185  1.0303 -0.3622
    3ALA    HB3   24   5.978  13.658  11.458  1.0163 -0.6387 -2.8003
    3ALA      C   25   6.072  13.346  11.589  0.8605  0.1319  0.2890
    3ALA      O   26   6.062  13.263  11.502 -0.1706 -0.3983 -0.0811
    4ALA      N   27   6.049  13.312  11.713  0.0441 -0.1627 -0.5328
    4ALA      H   28   6.074  13.382  11.781  1.0345  0.2740 -1.3518
    4ALA     CA   29   6.016  13.175  11.763 -0.4362  0.0699 -0.7697
    4ALA     HA   30   5.909  13.153  11.761 -0.5111  0.3812 -0.2806
    4ALA     CB   31   6.084  13.061  11.689  0.2204 -0.2080 -0.1477
    4ALA    HB1   32   6.191  13.084  11.690  0.4759 -1.2545 -1.2518
    4ALA    HB2   33   6.066  12.967  11.740  1.3605 -1.8462 -2.5870
    4ALA    HB3   34   6.044  13.045  11.589  3.1863  0.8871 -1.6457
    4ALA      C   35   6.058  13.162  11.910  0.2670 -0.0925 -0.2103
    4ALA      O   36   5.999  13.088  11.984 -0.4928 -0.2109 -0.3452
    5NME      N   37   6.160  13.237  11.949 -0.1513  0.4144  0.6397
    5NME      H   38   6.211  13.278  11.872  1.2362 -4.2021 -1.2045
    5NME    CH3   39   6.208  13.259  12.085  0.6628  0.3956 -0.0595
    5NME   HH31   40   6.120  13.290  12.141  0.3493 -1.4906  0.5496
    5NME   HH32   41   6.242  13.165  12.128  0.6409  1.5119  2.5904
    5NME   HH33   42   6.285  13.336  12.082  1.3372 -0.2964 -1.0469
  20.91516  20.91516  20.91516
