Protein
   42
    1ACE   HH31    1   5.902   4.401  14.071  0.1678 -0.5340  0.7700
    1ACE    CH3    2   5.826   4.465  14.116  0.1501  0.0901 -0.1346
    1ACE   HH32    3   5.789   4.403  14.197 -0.1391 -0.4582 -0.6667
    1ACE   HH33    4   5.739   4.476  14.050 -0.0327 -2.2311 -0.3932
    1ACE      C    5   5.880   4.594  14.169  0.6199 -0.0498  0.3398
    1ACE      O    6   5.852   4.708  14.114 -0.5200  0.4961  0.0776
    2ALA      N    7   5.951   4.582  14.280  0.1717  0.5547  0.1385
    2ALA      H    8   5.961   4.494  14.330  2.2768  0.7149  0.1163
    2ALA     CA    9   6.001   4.702  14.351  0.1836 -0.0629  0.3944
    2ALA     HA   10   5.923   4.766  14.390 -1.2650 -1.3208 -0.3275
    2ALA     CB   11   6.069   4.654  14.475 -0.2304 -0.4884 -0.0424
    2ALA    HB1   12   6.138   4.726  14.518  0.6904 -1.4474  0.1225
    2ALA    HB2   13   5.994   4.616  14.543  0.1708  1.3199  1.5127
    2ALA    HB3   14   6.134   4.570  14.453  0.1044 -0.4722  0.8351
    2ALA      C   15   6.098   4.785  14.261 -0.4343  0.1065  0.2401
    2ALA      O   16   6.201   4.737  14.218 -0.2551 -0.5981  0.1912
    3ALA      N   17   6.083   4.912  14.231  0.2238 -0.1768  0.3767
    3ALA      H   18   6.158   4.953  14.176  0.9257  0.1255  1.5233
    3ALA     CA   19   5.970   4.991  14.250 -0.6143 -0.4604  0.3879
    3ALA     HA   20   5.893   4.938  14.305 -0.3186  0.9256  2.2196
    3ALA     CB   21   6.004   5.119  14.330  0.3622  0.0412  1.0884
    3ALA    HB1   22   5.917   5.186  14.331 -1.4851 -2.2050 -0.3524
    3ALA    HB2   23   6.026   5.089  14.432  0.3132 -2.5302  0.4309
    3ALA    HB3   24   6.089   5.169  14.284  0.4919 -0.5683  0.6525
    3ALA      C   25   5.900   5.032  14.116 -0.4765 -0.9470 -0.2557
    3ALA      O   26   5.801   5.106  14.118 -0.0814 -0.6868  0.4190
    4ALA      N   27   5.957   4.990  14.004 -0.1938  0.2567 -0.4390
    4ALA      H   28   6.045   4.939  14.011  0.1026  0.7559 -0.4654
    4ALA     CA   29   5.901   5.003  13.868  0.0441  0.3290 -0.6475
    4ALA     HA   30   5.950   5.086  13.818  0.6728  0.0639 -0.4933
    4ALA     CB   31   5.947   4.875  13.793 -0.5167 -0.2314 -0.4543
    4ALA    HB1   32   5.926   4.877  13.686  2.9206 -0.1008 -1.2476
    4ALA    HB2   33   6.055   4.878  13.813 -0.6577  2.5877  0.3678
    4ALA    HB3   34   5.911   4.790  13.850  0.9717  1.0780  2.7060
    4ALA      C   35   5.744   5.023  13.848 -0.0530  0.4350  0.1396
    4ALA      O   36   5.699   5.121  13.787 -0.2325 -0.3554 -0.3297
    5NME      N   37   5.667   4.931  13.905 -0.2063  0.1343  0.2961
    5NME      H   38   5.710   4.852  13.951 -3.3394 -1.3144  1.0459
    5NME    CH3   39   5.515   4.940  13.902 -0.0675  0.4759  0.7236
    5NME   HH31   40   5.483   4.976  13.804  0.0805 -0.1884  0.4211
    5NME   HH32   41   5.465   4.846  13.924 -0.5716  0.4624 -0.3890
    5NME   HH33   42   5.483   5.010  13.979 -0.1712  0.6180  0.5517
  20.91516  20.91516  20.91516
