Protein
   42
    1ACE   HH31    1   8.842   8.631  13.214  0.5786 -0.4241 -0.1763
    1ACE    CH3    2   8.735   8.611  13.218  0.4507  0.2348 -0.1571
    1ACE   HH32    3   8.715   8.507  13.242  0.8447 -0.0921 -1.1633
    1ACE   HH33    4   8.694   8.643  13.122 -0.7385  1.9063  0.8304
    1ACE      C    5   8.673   8.703  13.330  0.1076  0.4341  0.0668
    1ACE      O    6   8.602   8.649  13.413 -0.2435 -0.2052  0.5387
    2ALA      N    7   8.710   8.831  13.333 -0.4597  0.4266 -0.3585
    2ALA      H    8   8.772   8.867  13.262 -0.0821  0.0523 -0.2245
    2ALA     CA    9   8.659   8.925  13.425 -0.2976  0.2747  0.1198
    2ALA     HA   10   8.721   8.908  13.513 -1.4427 -1.8739  0.5968
    2ALA     CB   11   8.692   9.067  13.376  0.1014  0.1934  1.0678
    2ALA    HB1   12   8.639   9.085  13.283 -0.4968  1.4573  1.6234
    2ALA    HB2   13   8.655   9.142  13.447  1.4876  0.2193  1.7886
    2ALA    HB3   14   8.800   9.074  13.364  0.1918 -3.0295 -1.2712
    2ALA      C   15   8.512   8.912  13.475 -0.1955  0.9140 -0.1047
    2ALA      O   16   8.424   8.923  13.391  0.1264 -0.4214  0.2214
    3ALA      N   17   8.482   8.858  13.595 -0.0947  0.0306 -0.0947
    3ALA      H   18   8.387   8.828  13.606  0.4889 -1.4669  1.0972
    3ALA     CA   19   8.563   8.867  13.716 -0.8389  0.3696  0.0420
    3ALA     HA   20   8.652   8.805  13.703 -0.1621  1.4841 -0.7973
    3ALA     CB   21   8.592   9.019  13.745 -0.6485  0.6641 -0.5363
    3ALA    HB1   22   8.640   9.034  13.841 -0.6414 -0.4849 -0.3376
    3ALA    HB2   23   8.651   9.064  13.665 -0.4791  1.9102  0.2778
    3ALA    HB3   24   8.491   9.060  13.747 -1.0808 -0.3087  1.8442
    3ALA      C   25   8.478   8.813  13.836  0.6092  0.5553 -0.8025
    3ALA      O   26   8.353   8.811  13.828 -0.1287  0.0909  0.0674
    4ALA      N   27   8.543   8.750  13.933 -0.0649  0.2376 -0.0855
    4ALA      H   28   8.644   8.760  13.928 -0.3095  2.5453 -1.9400
    4ALA     CA   29   8.502   8.690  14.051  0.1418  0.6629 -0.6361
    4ALA     HA   30   8.595   8.654  14.096 -1.0465 -2.4764 -0.3601
    4ALA     CB   31   8.460   8.805  14.151 -0.6888 -0.1436  0.3161
    4ALA    HB1   32   8.387   8.873  14.106  0.6532  1.3321  0.2841
    4ALA    HB2   33   8.427   8.770  14.249 -0.2387  1.5306  1.1074
    4ALA    HB3   34   8.550   8.864  14.170 -0.9145  1.1154 -2.1299
    4ALA      C   35   8.403   8.566  14.053  0.4580  0.1615 -0.0817
    4ALA      O   36   8.428   8.467  14.126 -0.4575  0.0687 -0.4196
    5NME      N   37   8.301   8.561  13.966 -0.2921  0.5033  0.5520
    5NME      H   38   8.286   8.644  13.911 -0.0468 -1.0460 -2.0056
    5NME    CH3   39   8.206   8.448  13.939  0.0367  0.1335  0.3402
    5NME   HH31   40   8.223   8.399  13.843  0.7978 -0.4593  0.7604
    5NME   HH32   41   8.210   8.371  14.017  0.5221 -0.2387 -0.0406
    5NME   HH33   42   8.103   8.482  13.941  0.6637  2.1161  0.3874
  20.91516  20.91516  20.91516
