Protein
   42
    1ACE   HH31    1  13.154  11.403  10.763 -0.7992  2.4123  0.1634
    1ACE    CH3    2  13.078  11.406  10.841 -0.6957 -0.1901  0.4387
    1ACE   HH32    3  13.126  11.406  10.939  2.2232  0.5838 -0.8877
    1ACE   HH33    4  13.006  11.324  10.831 -0.4664 -0.7443  2.7281
    1ACE      C    5  13.015  11.542  10.835  0.3701 -0.7805 -0.0981
    1ACE      O    6  12.894  11.560  10.829 -0.6232  0.1605 -0.4875
    2ALA      N    7  13.090  11.648  10.847 -0.3407  0.4899 -0.5227
    2ALA      H    8  13.190  11.637  10.857 -0.4848  0.1437  0.7834
    2ALA     CA    9  13.058  11.787  10.820  0.5217 -0.1811  0.2548
    2ALA     HA   10  13.021  11.819  10.918 -1.4099 -0.0663 -0.4566
    2ALA     CB   11  13.188  11.867  10.778 -0.2507 -1.0746 -0.0520
    2ALA    HB1   12  13.168  11.971  10.752  0.0428 -1.3545 -1.4674
    2ALA    HB2   13  13.255  11.857  10.863  0.0842  1.3616  0.0475
    2ALA    HB3   14  13.228  11.818  10.689  1.7746 -0.6580  0.5698
    2ALA      C   15  12.955  11.802  10.707  0.0943 -0.3683  0.3789
    2ALA      O   16  12.981  11.777  10.593 -0.4873  0.0685  0.0338
    3ALA      N   17  12.837  11.850  10.748  0.3609  0.0523 -0.4420
    3ALA      H   18  12.818  11.860  10.847 -2.6200 -3.4435 -0.4624
    3ALA     CA   19  12.706  11.852  10.670 -0.5709  0.0153  0.0955
    3ALA     HA   20  12.635  11.907  10.731 -0.4050  0.2391  0.0986
    3ALA     CB   21  12.727  11.944  10.546 -0.0936 -0.1233  0.0770
    3ALA    HB1   22  12.793  11.905  10.468 -1.8253  0.1451 -1.5731
    3ALA    HB2   23  12.633  11.971  10.500  0.1600 -0.5479 -0.7179
    3ALA    HB3   24  12.767  12.038  10.584  0.2826 -0.4846  0.5928
    3ALA      C   25  12.645  11.714  10.635 -0.3733  0.6529 -0.1299
    3ALA      O   26  12.527  11.689  10.669  0.2031  0.0928  0.0571
    4ALA      N   27  12.721  11.628  10.560  0.5779 -0.3490  0.5239
    4ALA      H   28  12.819  11.652  10.555  0.0505  1.8340 -0.1926
    4ALA     CA   29  12.697  11.483  10.534 -0.5645 -2.1007 -0.0776
    4ALA     HA   30  12.647  11.473  10.438  0.4983 -1.8056 -0.6898
    4ALA     CB   31  12.834  11.410  10.518  0.0069  0.9708  0.4207
    4ALA    HB1   32  12.883  11.400  10.614  3.2370  1.2423 -1.0715
    4ALA    HB2   33  12.815  11.318  10.463  0.7144  1.5076 -0.7538
    4ALA    HB3   34  12.900  11.464  10.449 -1.9383  1.5102 -1.1105
    4ALA      C   35  12.613  11.403  10.635 -0.7603  0.1832 -0.4784
    4ALA      O   36  12.534  11.322  10.591  0.8027  0.5998 -0.1806
    5NME      N   37  12.627  11.430  10.768  0.0400  0.1680 -0.2738
    5NME      H   38  12.706  11.488  10.793  0.4413 -0.0302 -1.0248
    5NME    CH3   39  12.529  11.388  10.868 -0.2753 -0.1156 -1.1639
    5NME   HH31   40  12.424  11.410  10.850 -1.0599 -2.1391  0.5501
    5NME   HH32   41  12.527  11.279  10.874 -0.4832 -0.0893 -0.5959
    5NME   HH33   42  12.554  11.434  10.964  0.4502 -2.5743 -0.0978
  20.91516  20.91516  20.91516
