Protein
   42
    1ACE   HH31    1   4.409  17.804  13.538  0.9175 -2.0770  2.2139
    1ACE    CH3    2   4.441  17.742  13.454 -0.6039  0.3594 -0.2833
    1ACE   HH32    3   4.528  17.776  13.398 -0.6984 -1.1131 -1.3854
    1ACE   HH33    4   4.355  17.725  13.388 -0.8324  0.7114 -0.0771
    1ACE      C    5   4.466  17.600  13.510 -0.4828 -0.4531 -0.1019
    1ACE      O    6   4.578  17.559  13.497  0.2365  0.2215 -0.1026
    2ALA      N    7   4.368  17.523  13.559 -0.2402  0.2276  0.1018
    2ALA      H    8   4.277  17.563  13.543 -0.3832 -0.2867 -0.3834
    2ALA     CA    9   4.386  17.383  13.596 -0.0621 -0.1671 -0.9194
    2ALA     HA   10   4.491  17.365  13.619 -0.1134  1.7539  1.2102
    2ALA     CB   11   4.311  17.361  13.731  0.7673  0.8454  0.1568
    2ALA    HB1   12   4.203  17.376  13.719  0.8404  1.3067  0.0665
    2ALA    HB2   13   4.338  17.267  13.779 -2.6959  0.0543  0.8534
    2ALA    HB3   14   4.336  17.453  13.785 -0.6583  2.2518 -1.4515
    2ALA      C   15   4.330  17.288  13.486 -0.9202 -0.4163 -0.1728
    2ALA      O   16   4.212  17.281  13.455 -0.6629  0.0736  0.1098
    3ALA      N   17   4.422  17.212  13.422  0.7258 -0.6576 -0.1044
    3ALA      H   18   4.382  17.128  13.382  1.3774 -0.6612 -0.7745
    3ALA     CA   19   4.570  17.212  13.416  0.1400  0.3557 -0.0056
    3ALA     HA   20   4.609  17.310  13.445  0.6972  0.7764 -2.0117
    3ALA     CB   21   4.632  17.107  13.509 -0.1364 -0.4461  0.0300
    3ALA    HB1   22   4.579  17.013  13.493 -0.1571 -0.5754  0.8489
    3ALA    HB2   23   4.740  17.103  13.499 -0.3173 -0.8556 -2.5365
    3ALA    HB3   24   4.604  17.133  13.611  3.5263  2.6125  0.4841
    3ALA      C   25   4.616  17.197  13.271  0.2031  0.0872 -0.2597
    3ALA      O   26   4.542  17.135  13.187  0.3544  0.5688 -0.0794
    4ALA      N   27   4.729  17.260  13.237  0.3340 -0.0385  0.0746
    4ALA      H   28   4.786  17.309  13.305  0.6084  0.3552 -0.4391
    4ALA     CA   29   4.778  17.286  13.104 -0.1317  0.2401  0.0653
    4ALA     HA   30   4.748  17.202  13.042  1.1185 -1.0901  1.1721
    4ALA     CB   31   4.702  17.409  13.050 -0.1070  0.0587 -0.9336
    4ALA    HB1   32   4.599  17.379  13.030 -1.1409  2.2813  0.7199
    4ALA    HB2   33   4.695  17.492  13.121  0.0187  0.2086 -1.1020
    4ALA    HB3   34   4.746  17.445  12.957  0.1195  1.3661 -0.3473
    4ALA      C   35   4.926  17.301  13.102 -0.1790  0.2519  0.3453
    4ALA      O   36   4.986  17.298  13.208 -0.2209 -0.4679 -0.4314
    5NME      N   37   4.988  17.327  12.984 -0.2318 -0.1984 -0.0873
    5NME      H   38   4.933  17.323  12.899  0.0931  1.6755 -0.4400
    5NME    CH3   39   5.127  17.365  12.969  0.5012  0.4147 -0.4737
    5NME   HH31   40   5.160  17.389  13.071 -1.2821 -0.0068  0.2267
    5NME   HH32   41   5.180  17.275  12.938 -1.2528 -0.8217 -0.0128
    5NME   HH33   42   5.146  17.445  12.897 -0.6295  1.0986 -0.0250
  20.91516  20.91516  20.91516
