Protein
   42
    1ACE   HH31    1   1.641   9.117  14.255 -0.0039  0.6039  0.0722
    1ACE    CH3    2   1.656   9.163  14.158 -0.0767  0.4926  0.0061
    1ACE   HH32    3   1.614   9.263  14.153 -2.5414 -0.5442 -3.0355
    1ACE   HH33    4   1.605   9.094  14.090 -0.7788 -1.5905  2.5073
    1ACE      C    5   1.799   9.165  14.122  0.3791  0.3816 -0.3716
    1ACE      O    6   1.828   9.099  14.023  0.2090  0.6861 -0.4493
    2ALA      N    7   1.886   9.230  14.201 -0.0128  0.1460 -0.3763
    2ALA      H    8   1.844   9.258  14.288  0.5310 -1.4689  0.4280
    2ALA     CA    9   2.023   9.193  14.208 -1.0704  0.5594  0.1117
    2ALA     HA   10   2.079   9.216  14.117 -2.0467 -2.0640 -1.2194
    2ALA     CB   11   2.079   9.281  14.323 -0.3199 -0.0396 -0.7093
    2ALA    HB1   12   2.187   9.277  14.319 -0.1768  1.5837  0.3584
    2ALA    HB2   13   2.040   9.382  14.335 -0.1770  0.0608 -1.0664
    2ALA    HB3   14   2.060   9.218  14.410  0.4438 -0.0397 -0.5400
    2ALA      C   15   2.040   9.042  14.234  0.7898  0.6309  0.0676
    2ALA      O   16   2.006   8.990  14.340 -0.3888 -0.3239 -0.4615
    3ALA      N   17   2.099   8.968  14.141  0.3217 -0.3276  0.5990
    3ALA      H   18   2.101   8.869  14.159 -0.7511 -0.2245  1.3722
    3ALA     CA   19   2.165   9.011  14.017 -0.2203  0.3075  0.3676
    3ALA     HA   20   2.095   9.066  13.955 -0.6554  0.4907  0.9915
    3ALA     CB   21   2.296   9.087  14.050  0.2881  0.3920 -0.3321
    3ALA    HB1   22   2.361   9.030  14.117 -0.1506 -1.3027 -1.2875
    3ALA    HB2   23   2.346   9.104  13.954 -0.1713  2.1981 -0.2807
    3ALA    HB3   24   2.281   9.181  14.103 -0.0094  0.6974 -0.9495
    3ALA      C   25   2.190   8.879  13.939 -0.1293  0.2131 -0.0922
    3ALA      O   26   2.208   8.776  14.005  0.6598  0.3906  0.1540
    4ALA      N   27   2.182   8.872  13.802 -0.3487 -0.4008 -0.0785
    4ALA      H   28   2.187   8.963  13.757  3.2557 -0.2469  0.3671
    4ALA     CA   29   2.235   8.763  13.732  0.1152 -0.4271 -0.0265
    4ALA     HA   30   2.212   8.671  13.785 -1.5674 -0.7507 -1.2474
    4ALA     CB   31   2.164   8.742  13.596 -0.1128 -0.6351 -0.5114
    4ALA    HB1   32   2.219   8.665  13.542  0.4783  1.2133 -2.6669
    4ALA    HB2   33   2.058   8.718  13.611 -0.9534  0.9597 -3.2286
    4ALA    HB3   34   2.176   8.835  13.540 -2.2103 -0.1570 -0.2589
    4ALA      C   35   2.389   8.785  13.730 -0.1830 -0.3758  0.2123
    4ALA      O   36   2.436   8.896  13.731  0.4097  0.0187 -0.1837
    5NME      N   37   2.464   8.671  13.728  0.0297 -0.2990 -0.1593
    5NME      H   38   2.426   8.582  13.701  2.6681 -2.0694  1.4450
    5NME    CH3   39   2.610   8.673  13.747  0.0721  0.2549  0.1588
    5NME   HH31   40   2.631   8.731  13.837 -0.0278  0.0444  0.3166
    5NME   HH32   41   2.638   8.569  13.757  1.7119  0.7532  1.1460
    5NME   HH33   42   2.664   8.717  13.663 -1.6681  0.7642 -0.7712
  20.91516  20.91516  20.91516
