Title
  129
    1AIB    CAY    1  21.451  20.504  20.908 -0.0739 -0.6072  0.2331
    1AIB    HY1    2  21.537  20.487  20.977 -0.4624 -0.6211  0.7184
    1AIB    HY2    3  21.476  20.525  20.802 -0.1818 -0.9831  0.1306
    1AIB    HY3    4  21.385  20.415  20.909  0.7379 -1.2269  0.9766
    1AIB     CY    5  21.373  20.608  20.972  0.3466 -0.5665 -0.2889
    1AIB     OY    6  21.294  20.569  21.062 -0.3666 -0.0680  0.8686
    1AIB      N    7  21.387  20.735  20.926 -0.3438  0.0999 -0.3595
    1AIB     HN    8  21.448  20.755  20.850  0.8904 -0.9000  0.3336
    1AIB     CA    9  21.323  20.855  20.966 -0.6945  0.0084 -0.0334
    1AIB    CB1   10  21.347  20.958  20.858 -0.0172 -0.6360 -0.2125
    1AIB   HB11   11  21.457  20.959  20.846 -0.0361  1.3665 -0.6514
    1AIB   HB12   12  21.324  21.059  20.899 -2.2593 -0.7660 -0.9644
    1AIB   HB13   13  21.306  20.955  20.755  0.3132  2.9711 -0.5740
    1AIB    CB2   14  21.398  20.904  21.093 -0.0946  0.1974  0.3061
    1AIB   HB21   15  21.390  20.821  21.166 -3.4165 -0.3729 -0.5266
    1AIB   HB22   16  21.348  20.992  21.139 -1.8725  0.3643 -1.7605
    1AIB   HB23   17  21.504  20.927  21.068 -0.7174  2.4124 -0.5616
    1AIB      C   18  21.175  20.840  20.985 -0.8803  0.2958 -0.2502
    1AIB      O   19  21.124  20.857  21.095  0.2488 -0.2281  0.0387
    2AIB      N   20  21.102  20.796  20.876  0.6272  0.2362 -0.1463
    2AIB     HN   21  21.150  20.779  20.790  0.2960 -2.7988  0.1858
    2AIB     CA   22  20.960  20.792  20.867  0.0113 -0.0347  0.3108
    2AIB    CB1   23  20.919  20.720  20.743  0.3876 -0.4838  1.2753
    2AIB   HB11   24  20.952  20.779  20.654  2.4041 -0.9504  1.6671
    2AIB   HB12   25  20.809  20.706  20.735  0.2689  0.8833 -0.1710
    2AIB   HB13   26  20.972  20.623  20.735 -1.1720 -1.5257  2.9152
    2AIB    CB2   27  20.901  20.933  20.874 -1.0258  0.3774 -0.5508
    2AIB   HB21   28  20.790  20.926  20.866 -1.1990 -1.1594  1.6975
    2AIB   HB22   29  20.937  21.003  20.796  1.1049  0.7170  0.6562
    2AIB   HB23   30  20.915  20.980  20.974  1.1112 -1.2534 -0.0061
    2AIB      C   31  20.905  20.691  20.977  0.7533 -0.0566  0.5593
    2AIB      O   32  20.803  20.706  21.033 -0.6459 -0.9881 -0.3666
    3AIB      N   33  20.971  20.573  20.994  0.4112  0.4492  0.0938
    3AIB     HN   34  21.054  20.564  20.940  0.9051 -0.3664  0.9580
    3AIB     CA   35  20.924  20.465  21.076 -0.9269 -0.2905  0.0367
    3AIB    CB1   36  21.016  20.347  21.053  0.7296 -0.4382 -0.0611
    3AIB   HB11   37  21.120  20.356  21.091  0.4874 -1.6655  0.9649
    3AIB   HB12   38  21.017  20.318  20.946  1.2938  1.5011 -0.6127
    3AIB   HB13   39  20.976  20.253  21.098 -0.1522 -1.3435 -2.5751
    3AIB    CB2   40  20.787  20.421  21.040  0.1448 -0.5985 -0.0621
    3AIB   HB21   41  20.712  20.503  21.038  2.1166  1.2987 -1.0624
    3AIB   HB22   42  20.748  20.343  21.108 -2.4082  0.5900 -0.0407
    3AIB   HB23   43  20.777  20.380  20.937 -2.7889  0.3412 -0.2406
    3AIB      C   44  20.943  20.499  21.226 -0.1599  0.4932  0.3267
    3AIB      O   45  20.853  20.483  21.305 -0.1931  0.0937 -0.0430
    4AIB      N   46  21.064  20.559  21.265 -0.3450 -0.7418 -0.6495
    4AIB     HN   47  21.132  20.591  21.200 -2.0791  1.6030 -1.4510
    4AIB     CA   48  21.077  20.625  21.396  0.4419 -0.0064  0.8337
    4AIB    CB1   49  21.216  20.701  21.403  0.3906  0.2429 -0.1496
    4AIB   HB11   50  21.239  20.752  21.499 -0.3064 -2.4938  1.6009
    4AIB   HB12   51  21.213  20.772  21.317  1.2585 -1.1769 -1.3982
    4AIB   HB13   52  21.298  20.627  21.399 -1.2129 -1.6453  0.5175
    4AIB    CB2   53  21.087  20.520  21.494  0.2799  0.6148 -0.0865
    4AIB   HB21   54  21.125  20.563  21.589 -0.9462  0.0198  0.6863
    4AIB   HB22   55  21.161  20.447  21.456 -0.3491  0.6358 -1.4526
    4AIB   HB23   56  20.993  20.462  21.508  0.8872 -0.7916 -1.4340
    4AIB      C   57  20.964  20.733  21.434 -0.4954 -0.0474  0.0876
    4AIB      O   58  20.925  20.737  21.547  0.1442 -0.9441 -0.2406
    5AIB      N   59  20.907  20.809  21.332  0.2957  0.4542  0.4504
    5AIB     HN   60  20.946  20.798  21.241  0.5900 -2.2515  0.8251
    5AIB     CA   61  20.804  20.914  21.351 -0.1081 -0.2883 -0.6584
    5AIB    CB1   62  20.757  20.971  21.219  0.8875  0.0844 -0.4105
    5AIB   HB11   63  20.838  21.018  21.161  1.0879  0.0706 -0.1455
    5AIB   HB12   64  20.687  21.054  21.243  1.3768  0.4394 -0.1953
    5AIB   HB13   65  20.707  20.895  21.155 -2.0809  1.3724  0.2270
    5AIB    CB2   66  20.849  21.039  21.438 -0.2696  0.4123 -0.4428
    5AIB   HB21   67  20.886  21.009  21.538 -1.5399  0.1681 -0.0300
    5AIB   HB22   68  20.765  21.105  21.467 -0.7086 -1.3278  2.7052
    5AIB   HB23   69  20.930  21.100  21.392 -2.0173  1.0781 -2.8163
    5AIB      C   70  20.671  20.850  21.402  0.4950 -0.0782 -0.1122
    5AIB      O   71  20.606  20.909  21.491  0.1462 -0.8091 -0.4861
    6AIB      N   72  20.638  20.731  21.355  0.5969  0.0331  0.2906
    6AIB     HN   73  20.704  20.687  21.296 -0.5136 -0.4398 -0.6342
    6AIB     CA   74  20.514  20.653  21.365 -0.4184  0.4014 -0.5822
    6AIB    CB1   75  20.525  20.533  21.273 -0.3831 -0.9477 -0.1376
    6AIB   HB11   76  20.548  20.588  21.179 -1.3383 -0.1534  0.0791
    6AIB   HB12   77  20.427  20.482  21.264  0.1931 -1.7586 -3.6387
    6AIB   HB13   78  20.604  20.459  21.300 -0.8640 -1.2420  0.4707
    6AIB    CB2   79  20.389  20.739  21.322 -0.1747 -0.4605 -0.5970
    6AIB   HB21   80  20.389  20.778  21.218 -0.9596 -3.1921 -1.7301
    6AIB   HB22   81  20.373  20.821  21.395  0.1736  0.9204 -2.0224
    6AIB   HB23   82  20.300  20.671  21.323 -0.8398  0.3405  1.7939
    6AIB      C   83  20.499  20.611  21.515 -0.3938  1.0078  0.3276
    6AIB      O   84  20.393  20.619  21.577  0.0857  0.2561  0.6050
    7AIB      N   85  20.610  20.565  21.578 -0.2514 -0.2555 -0.2708
    7AIB     HN   86  20.698  20.570  21.532  1.8621  1.0471  3.5783
    7AIB     CA   87  20.632  20.512  21.709  0.2150  0.7595 -0.4445
    7AIB    CB1   88  20.776  20.463  21.708 -0.6374  0.3918  0.2868
    7AIB   HB11   89  20.844  20.551  21.714 -0.0521 -0.1383  2.2776
    7AIB   HB12   90  20.800  20.415  21.611 -0.8544  1.0670 -0.1045
    7AIB   HB13   91  20.803  20.397  21.794  0.9341  1.9380  1.0467
    7AIB    CB2   92  20.544  20.385  21.727 -0.2653 -0.2247  0.4602
    7AIB   HB21   93  20.436  20.412  21.717  0.0890  1.0805 -0.0443
    7AIB   HB22   94  20.545  20.353  21.834 -0.1524  0.9517  0.8364
    7AIB   HB23   95  20.584  20.301  21.667  1.1263  0.6606  0.1077
    7AIB      C   96  20.610  20.624  21.810 -0.0080 -0.4834  0.2915
    7AIB      O   97  20.547  20.617  21.910  0.6099  0.0685  0.3616
    8AIB      N   98  20.660  20.745  21.786 -0.6643  0.7864  0.3266
    8AIB     HN   99  20.719  20.756  21.706  0.9321 -0.8323  1.2140
    8AIB     CA  100  20.658  20.858  21.870 -0.4500 -0.7050  0.4150
    8AIB    CB1  101  20.739  20.970  21.789 -0.0892 -0.4974  0.2943
    8AIB   HB11  102  20.837  20.934  21.750  0.3433 -1.2658  2.0007
    8AIB   HB12  103  20.758  21.062  21.849  0.4581 -0.5799  0.2507
    8AIB   HB13  104  20.684  21.001  21.697 -0.2720 -1.3155  0.1273
    8AIB    CB2  105  20.734  20.823  22.002  0.0694 -0.5327 -0.4025
    8AIB   HB21  106  20.829  20.776  21.966 -0.2203 -0.9495 -0.6367
    8AIB   HB22  107  20.672  20.752  22.061  1.3337 -0.2406  1.3818
    8AIB   HB23  108  20.753  20.912  22.065  3.1545  1.3786 -3.7028
    8AIB      C  109  20.519  20.923  21.900 -0.1106  0.7688  0.2370
    8AIB      O  110  20.497  20.969  22.010  0.6783  0.2152 -0.9091
    9AIB      N  111  20.434  20.924  21.794  0.2974  0.7222  0.0127
    9AIB     HN  112  20.473  20.891  21.708  0.9198  0.4597  0.3909
    9AIB     CA  113  20.297  20.960  21.796 -0.2638 -0.5086 -0.2262
    9AIB    CB1  114  20.235  20.924  21.661  0.7390  0.0229  0.0443
    9AIB   HB11  115  20.253  20.817  21.636 -0.6654 -0.1907 -0.1243
    9AIB   HB12  116  20.283  20.986  21.582  0.5670 -0.4803 -0.4629
    9AIB   HB13  117  20.125  20.945  21.659  0.7970  0.2964 -0.4588
    9AIB    CB2  118  20.290  21.111  21.813 -0.5570 -0.3859  0.5718
    9AIB   HB21  119  20.345  21.165  21.732 -2.4230  1.0282  0.1921
    9AIB   HB22  120  20.334  21.141  21.910 -1.7031 -0.5706  1.1659
    9AIB   HB23  121  20.186  21.147  21.823  0.3002  2.5246  0.0308
    9AIB      C  122  20.213  20.896  21.906  0.7893  0.3007  0.2614
    9AIB      O  123  20.126  20.961  21.966  0.5634 -0.2655  0.3302
    9AIB     NT  124  20.233  20.766  21.943 -0.0389  0.2228 -0.2250
    9AIB    HNT  125  20.308  20.716  21.903  0.6858  0.6021  0.6362
    9AIB    CAT  126  20.156  20.694  22.041  1.0422  0.6155  0.6722
    9AIB    HT1  127  20.223  20.610  22.070  2.5829  1.5001 -0.2073
    9AIB    HT2  128  20.060  20.656  22.000  1.0530  0.7292  0.5381
    9AIB    HT3  129  20.141  20.755  22.133 -1.2336  1.7012 -0.3411
  42.09246  42.09246  42.09246
