Protein
   42
    1ACE   HH31    1   8.555   9.708   8.162 -0.9388 -0.3233 -2.5813
    1ACE    CH3    2   8.655   9.728   8.122  0.3162  0.8068  0.6840
    1ACE   HH32    3   8.638   9.802   8.043 -1.7281 -0.3003  0.0075
    1ACE   HH33    4   8.694   9.637   8.076  0.6280  2.2025 -2.0333
    1ACE      C    5   8.745   9.785   8.225  0.6736  0.1080 -0.2387
    1ACE      O    6   8.833   9.864   8.193 -0.9420  0.0989 -0.5650
    2ALA      N    7   8.727   9.747   8.349  0.1337  0.4888  0.7159
    2ALA      H    8   8.648   9.686   8.370 -1.5626  2.6732  1.1201
    2ALA     CA    9   8.791   9.808   8.469  0.0121 -0.1258 -0.2274
    2ALA     HA   10   8.724   9.779   8.550  0.1763 -1.1957 -0.4626
    2ALA     CB   11   8.931   9.753   8.496 -0.4709  0.0866 -0.5155
    2ALA    HB1   12   8.940   9.648   8.468  1.1648  0.4000 -1.3654
    2ALA    HB2   13   9.012   9.805   8.444  0.6105  0.7836  1.7394
    2ALA    HB3   14   8.965   9.763   8.600  0.7617  0.0614 -0.8880
    2ALA      C   15   8.779   9.957   8.475 -0.6995 -0.6293  0.6263
    2ALA      O   16   8.694  10.007   8.542  0.1579 -0.0271 -0.3161
    3ALA      N   17   8.870  10.030   8.407 -0.0166 -0.5290  0.2628
    3ALA      H   18   8.927   9.972   8.348  0.9451  0.1778  0.4670
    3ALA     CA   19   8.883  10.179   8.389  0.0012 -0.3637 -0.0670
    3ALA     HA   20   8.912  10.224   8.484 -1.3644 -1.8370  1.1047
    3ALA     CB   21   9.006  10.204   8.294  0.1816 -0.3760 -0.0758
    3ALA    HB1   22   8.980  10.154   8.201  0.4268  0.7765 -0.7927
    3ALA    HB2   23   9.013  10.312   8.277 -5.5625  0.5394  1.3145
    3ALA    HB3   24   9.100  10.174   8.341 -0.5819 -1.0459  1.0493
    3ALA      C   25   8.761  10.253   8.332  0.0648 -0.0962 -0.5472
    3ALA      O   26   8.737  10.373   8.357 -0.5969  0.5560 -0.2532
    4ALA      N   27   8.680  10.178   8.253  0.1639  0.2255  0.7996
    4ALA      H   28   8.700  10.081   8.233  0.5592  0.6153 -0.8316
    4ALA     CA   29   8.549  10.222   8.213 -0.6591 -0.6043 -0.9717
    4ALA     HA   30   8.519  10.297   8.287 -1.2151 -0.2589 -1.5346
    4ALA     CB   31   8.556  10.301   8.082 -0.0042  0.2895  0.6404
    4ALA    HB1   32   8.629  10.382   8.088  0.6046 -0.2117  0.2491
    4ALA    HB2   33   8.578  10.234   7.998 -0.1067  0.3618  0.5521
    4ALA    HB3   34   8.459  10.348   8.067 -0.1136  0.5900  2.2004
    4ALA      C   35   8.449  10.104   8.216 -0.3505 -0.4737 -0.1705
    4ALA      O   36   8.482   9.988   8.196  0.2892  0.2433 -0.2347
    5NME      N   37   8.322  10.140   8.227 -0.6685  0.2703  0.4379
    5NME      H   38   8.289  10.235   8.234 -2.0610 -0.2278  1.2479
    5NME    CH3   39   8.215  10.036   8.223 -0.5823  0.1603  0.5950
    5NME   HH31   40   8.120  10.088   8.237  0.4390  1.3694  3.9280
    5NME   HH32   41   8.216   9.980   8.130  1.0804 -2.7814  2.2661
    5NME   HH33   42   8.215   9.969   8.309  0.0265  0.2343  0.6544
  20.91516  20.91516  20.91516
