Protein
   42
    1ACE   HH31    1  14.798   9.328  11.625  1.4543 -1.4161  2.1390
    1ACE    CH3    2  14.706   9.270  11.619  0.3627  0.3895  0.7387
    1ACE   HH32    3  14.737   9.177  11.572 -1.0291 -2.1398  4.3763
    1ACE   HH33    4  14.632   9.323  11.558 -1.0055  0.0954  2.1126
    1ACE      C    5  14.637   9.250  11.750  0.1668  0.2461  0.3682
    1ACE      O    6  14.568   9.150  11.769  0.6844  0.4600 -0.1634
    2ALA      N    7  14.666   9.341  11.846  0.4677  0.2262  0.8645
    2ALA      H    8  14.740   9.404  11.821  0.4347 -0.5942 -1.6251
    2ALA     CA    9  14.603   9.353  11.975 -0.2050  0.2947  0.8089
    2ALA     HA   10  14.653   9.296  12.053  0.1406 -0.3669  0.1040
    2ALA     CB   11  14.607   9.496  12.023 -0.0206 -0.0476  0.3333
    2ALA    HB1   12  14.558   9.498  12.121 -1.9186 -0.4832 -0.5614
    2ALA    HB2   13  14.711   9.528  12.035 -0.0471 -0.6071  2.8357
    2ALA    HB3   14  14.549   9.556  11.953 -1.1667 -1.2671  0.1856
    2ALA      C   15  14.445   9.309  11.978  0.0397 -0.0921  0.6284
    2ALA      O   16  14.359   9.378  11.924  0.1582  0.1894  0.2299
    3ALA      N   17  14.405   9.198  12.037 -0.2766 -0.6842 -0.3032
    3ALA      H   18  14.471   9.145  12.092 -0.1276 -2.9130 -2.4484
    3ALA     CA   19  14.268   9.146  12.049 -0.1671 -0.1992  0.1000
    3ALA     HA   20  14.270   9.050  12.099 -0.8049  0.5729  1.6489
    3ALA     CB   21  14.175   9.228  12.145  0.7909 -1.2019 -0.1967
    3ALA    HB1   22  14.230   9.243  12.237  1.0355  1.3014 -0.6852
    3ALA    HB2   23  14.142   9.317  12.090  0.7951 -2.2598 -1.9767
    3ALA    HB3   24  14.090   9.168  12.178  1.0974 -1.6878 -0.2831
    3ALA      C   25  14.206   9.094  11.917 -0.0748  0.1618  0.5167
    3ALA      O   26  14.127   8.997  11.911  0.3524 -0.0541 -0.1483
    4ALA      N   27  14.225   9.166  11.808  0.6922 -0.5247  0.5764
    4ALA      H   28  14.286   9.246  11.815  0.2792 -0.0982 -0.3935
    4ALA     CA   29  14.162   9.153  11.679  0.1328 -0.2900  0.2013
    4ALA     HA   30  14.067   9.101  11.691  1.0826 -2.0921  0.2616
    4ALA     CB   31  14.124   9.285  11.620  1.0837 -0.1368 -0.0518
    4ALA    HB1   32  14.206   9.353  11.597 -1.6028  2.1910 -3.9239
    4ALA    HB2   33  14.060   9.272  11.533 -1.3937 -2.2940  1.9668
    4ALA    HB3   34  14.069   9.333  11.701 -1.1474 -0.4527 -1.3095
    4ALA      C   35  14.240   9.065  11.581  0.5509  0.4135  0.4408
    4ALA      O   36  14.177   9.013  11.488 -0.1857  0.1186 -0.5443
    5NME      N   37  14.367   9.031  11.608 -0.2295  0.2246 -0.5469
    5NME      H   38  14.410   9.068  11.692  1.6684 -1.0531 -0.8684
    5NME    CH3   39  14.435   8.915  11.557 -0.5059 -0.8904 -1.0574
    5NME   HH31   40  14.414   8.904  11.450  0.9487  1.9509 -1.7407
    5NME   HH32   41  14.544   8.920  11.568 -0.3559 -0.9917 -2.2704
    5NME   HH33   42  14.410   8.828  11.618 -0.4375  0.2962  0.7058
  20.91516  20.91516  20.91516
