Protein
   32
    1ACE   HH31    1  16.670   6.815   9.758 -0.4262 -1.3244 -2.4451
    1ACE    CH3    2  16.575   6.761   9.759 -1.2112 -0.0226  0.0172
    1ACE   HH32    3  16.522   6.760   9.855 -2.0210  1.0240 -0.3929
    1ACE   HH33    4  16.595   6.661   9.723 -0.7656 -0.5583  1.6541
    1ACE      C    5  16.484   6.801   9.646  0.2751  0.7060  0.3536
    1ACE      O    6  16.392   6.721   9.617  0.1558 -0.0287  0.6084
    2ALA      N    7  16.496   6.927   9.595  0.0523  0.4196  0.5937
    2ALA      H    8  16.576   6.984   9.616  1.6177 -0.6730 -1.9437
    2ALA     CA    9  16.420   6.976   9.478 -0.4439  0.3799 -0.3048
    2ALA     HA   10  16.322   6.930   9.489  0.1016 -0.6229  0.3672
    2ALA     CB   11  16.406   7.130   9.490 -0.1426 -0.1882  0.1676
    2ALA    HB1   12  16.387   7.167   9.591 -1.1892  1.3496 -0.5655
    2ALA    HB2   13  16.500   7.172   9.452 -2.1926  2.8508 -1.9351
    2ALA    HB3   14  16.322   7.165   9.431 -1.8514 -2.7122  0.9138
    2ALA      C   15  16.469   6.920   9.348 -0.2306 -0.1396  0.0150
    2ALA      O   16  16.573   6.967   9.304 -0.1754  0.3905 -0.9066
    3ALA      N   17  16.399   6.830   9.290  0.1822 -0.5474 -0.0626
    3ALA      H   18  16.315   6.794   9.333  1.2789 -1.0574  1.7348
    3ALA     CA   19  16.427   6.791   9.154  0.1672 -0.5947  0.3150
    3ALA     HA   20  16.532   6.807   9.131 -0.0427  1.3605  0.6363
    3ALA     CB   21  16.395   6.645   9.136  0.1492  0.5944  0.3096
    3ALA    HB1   22  16.457   6.616   9.051  0.8154  2.0912  0.2422
    3ALA    HB2   23  16.434   6.577   9.211  0.6162  0.4151 -0.0933
    3ALA    HB3   24  16.292   6.621   9.106  0.8503 -1.2886 -0.7362
    3ALA      C   25  16.352   6.886   9.061 -0.1186  0.4829 -0.0176
    3ALA      O   26  16.233   6.889   9.070  0.0470  0.2665  0.4723
    4NME      N   27  16.422   6.945   8.961  0.1847  0.3598  0.0501
    4NME      H   28  16.520   6.922   8.971 -0.0032 -0.4004  0.1780
    4NME    CH3   29  16.360   7.037   8.866 -0.2258  0.2866 -0.0450
    4NME   HH31   30  16.270   6.991   8.824 -0.3238  0.4998 -0.0688
    4NME   HH32   31  16.340   7.136   8.908  0.5444 -0.2789  1.7086
    4NME   HH33   32  16.431   7.044   8.784  0.4861 -1.4598  0.3998
  20.99041  20.99041  20.99041
