Protein
   42
    1ACE   HH31    1   8.443  14.907   8.939  1.4078 -2.2147  1.3587
    1ACE    CH3    2   8.412  14.938   9.039 -0.0739  0.2037  0.2464
    1ACE   HH32    3   8.447  14.861   9.108 -0.3910  1.1390  1.4716
    1ACE   HH33    4   8.305  14.955   9.042  0.1671  2.6487 -1.8253
    1ACE      C    5   8.480  15.068   9.060 -0.5984  0.3261  0.6106
    1ACE      O    6   8.414  15.171   9.068 -0.4385 -0.4289  0.5869
    2ALA      N    7   8.611  15.073   9.062 -0.2054  0.4104  0.0282
    2ALA      H    8   8.653  14.983   9.042 -1.0728 -0.6493  2.6108
    2ALA     CA    9   8.705  15.181   9.064 -1.1470 -0.3438 -0.0845
    2ALA     HA   10   8.759  15.183   9.158  1.3983  4.5901 -1.2595
    2ALA     CB   11   8.819  15.145   8.969 -0.2549  0.4439 -0.6658
    2ALA    HB1   12   8.859  15.050   9.006  0.1255  1.2050  0.9763
    2ALA    HB2   13   8.786  15.150   8.865 -0.7347 -1.1373 -0.6182
    2ALA    HB3   14   8.903  15.214   8.972 -0.6807  0.9724 -0.8261
    2ALA      C   15   8.651  15.320   9.036 -1.0831 -0.9703  0.0317
    2ALA      O   16   8.634  15.340   8.917 -0.1625 -0.1338 -0.1436
    3ALA      N   17   8.634  15.418   9.129  0.1028  0.1961 -0.2952
    3ALA      H   18   8.599  15.507   9.096  1.2881  0.3591 -1.1540
    3ALA     CA   19   8.646  15.410   9.278 -0.7468  0.0568  0.9323
    3ALA     HA   20   8.752  15.391   9.295 -0.6751  0.4600  0.9775
    3ALA     CB   21   8.597  15.549   9.332 -0.7757  0.0727  0.1127
    3ALA    HB1   22   8.493  15.568   9.304 -1.1188 -1.2029  0.4436
    3ALA    HB2   23   8.604  15.545   9.441 -0.7193 -1.0566  0.0738
    3ALA    HB3   24   8.658  15.627   9.287  1.1260 -1.3389  0.1519
    3ALA      C   25   8.572  15.288   9.336 -0.1885  0.0719 -0.0876
    3ALA      O   26   8.634  15.189   9.382  0.0737 -0.4361  0.5240
    4ALA      N   27   8.438  15.276   9.328  0.3577  0.4249 -0.2127
    4ALA      H   28   8.384  15.338   9.270 -1.0149 -2.5106 -2.3409
    4ALA     CA   29   8.360  15.181   9.408  0.6028  0.1193 -0.2710
    4ALA     HA   30   8.420  15.091   9.404  1.6230  0.8185 -1.1065
    4ALA     CB   31   8.339  15.228   9.554 -0.3905 -0.1198  0.0360
    4ALA    HB1   32   8.259  15.301   9.541  0.1455  0.4335 -0.2213
    4ALA    HB2   33   8.302  15.139   9.606 -0.1472 -0.2159  0.0491
    4ALA    HB3   34   8.429  15.266   9.602  0.1468  0.1991 -1.1925
    4ALA      C   35   8.223  15.134   9.344  0.4170  0.6920  0.2624
    4ALA      O   36   8.141  15.082   9.418 -0.1649 -0.0323  0.3520
    5NME      N   37   8.192  15.157   9.216  0.0115  0.5554 -0.4463
    5NME      H   38   8.262  15.190   9.151 -0.8079 -1.2881 -2.3677
    5NME    CH3   39   8.055  15.143   9.164 -0.5205  0.4625 -0.0935
    5NME   HH31   40   8.035  15.201   9.074 -0.5807 -1.0642 -1.1156
    5NME   HH32   41   8.036  15.036   9.154  3.6952 -0.4889  0.4834
    5NME   HH33   42   7.990  15.176   9.245 -1.1268  1.0125 -0.7934
  20.91516  20.91516  20.91516
