Protein
   42
    1ACE   HH31    1   7.759  13.244   7.034 -0.7664  0.3594  0.8788
    1ACE    CH3    2   7.837  13.299   6.983 -0.6859 -0.3312  0.2411
    1ACE   HH32    3   7.808  13.345   6.888  1.5776 -0.9940 -0.8635
    1ACE   HH33    4   7.915  13.227   6.959 -0.2992  0.8812 -2.5620
    1ACE      C    5   7.887  13.413   7.068 -0.3806  0.2462  0.3638
    1ACE      O    6   7.832  13.518   7.052  0.2108  0.1361 -0.0807
    2ALA      N    7   7.996  13.391   7.148  0.6566  0.2403 -0.3289
    2ALA      H    8   8.037  13.299   7.154 -0.8145 -0.3431  1.4858
    2ALA     CA    9   8.070  13.501   7.212 -0.1214 -0.4533 -0.5813
    2ALA     HA   10   8.005  13.543   7.289 -1.3018  0.9671 -2.2814
    2ALA     CB   11   8.197  13.454   7.281 -0.1443  0.5649 -0.3882
    2ALA    HB1   12   8.240  13.365   7.234  0.1860  1.1266 -1.1667
    2ALA    HB2   13   8.282  13.522   7.274 -1.4935  2.2757 -0.8953
    2ALA    HB3   14   8.174  13.432   7.386 -2.0553  0.6635 -0.7503
    2ALA      C   15   8.098  13.621   7.119 -0.2231  0.6976 -0.1603
    2ALA      O   16   8.145  13.584   7.013 -0.2432 -0.2888 -0.1240
    3ALA      N   17   8.057  13.746   7.140 -0.1904  0.6933  0.8281
    3ALA      H   18   8.062  13.810   7.061  1.4519 -0.9514 -0.4682
    3ALA     CA   19   8.015  13.794   7.275  0.4161 -0.6420 -0.8647
    3ALA     HA   20   8.065  13.738   7.354 -0.4528 -0.2466 -0.0220
    3ALA     CB   21   8.075  13.936   7.292  0.4006 -0.4995  0.2494
    3ALA    HB1   22   8.172  13.926   7.244  0.4337 -1.9884  0.5647
    3ALA    HB2   23   8.014  14.010   7.240  0.0188  0.7616  2.4039
    3ALA    HB3   24   8.083  13.966   7.396  1.0042  0.1410  0.0394
    3ALA      C   25   7.861  13.798   7.307  0.7758  0.3303  0.0143
    3ALA      O   26   7.825  13.849   7.415  0.4822  0.6770 -0.0098
    4ALA      N   27   7.788  13.747   7.207 -0.1739 -0.5547 -0.8497
    4ALA      H   28   7.843  13.716   7.129  1.7434  0.3528  0.0796
    4ALA     CA   29   7.643  13.733   7.195  0.2015  0.0191 -0.4132
    4ALA     HA   30   7.625  13.709   7.091 -0.9220 -1.1176  0.0149
    4ALA     CB   31   7.590  13.624   7.291 -0.1349  0.7254  0.0298
    4ALA    HB1   32   7.614  13.644   7.396 -1.0221  0.3864  0.2980
    4ALA    HB2   33   7.483  13.617   7.277  0.1596 -1.1303 -1.7483
    4ALA    HB3   34   7.639  13.527   7.282  0.3169  0.4373  3.8002
    4ALA      C   35   7.563  13.862   7.206 -0.2501 -0.0984  0.2264
    4ALA      O   36   7.450  13.864   7.167 -0.2305 -0.2441 -0.1241
    5NME      N   37   7.629  13.970   7.261  0.0897  0.4792  0.1561
    5NME      H   38   7.724  13.959   7.295 -0.1400  3.2412  1.9780
    5NME    CH3   39   7.575  14.103   7.256  0.5117  0.2415  0.0634
    5NME   HH31   40   7.481  14.107   7.200  1.1848 -0.8196 -1.2112
    5NME   HH32   41   7.556  14.157   7.348 -0.5702  2.1682 -1.2157
    5NME   HH33   42   7.645  14.156   7.190 -0.2753 -1.3041 -2.1261
  20.91516  20.91516  20.91516
