Title
  129
    1AIB    CAY    1  13.926  38.715  27.375 -0.1159  1.1499 -0.7112
    1AIB    HY1    2  13.864  38.720  27.467 -0.5560  1.9991 -1.0288
    1AIB    HY2    3  13.920  38.813  27.322  1.8201  0.8390 -1.6159
    1AIB    HY3    4  14.023  38.719  27.429 -0.3007  4.0256 -0.4516
    1AIB     CY    5  13.920  38.587  27.301  0.5999 -0.3287  0.2930
    1AIB     OY    6  14.031  38.543  27.265 -0.3894 -1.3866  0.1870
    1AIB      N    7  13.811  38.532  27.277 -0.1636  0.3473 -0.3099
    1AIB     HN    8  13.751  38.597  27.323  1.3368  0.3288  1.7849
    1AIB     CA    9  13.776  38.415  27.209 -0.1237  0.9566  0.4028
    1AIB    CB1   10  13.630  38.403  27.191  0.3997 -0.1886 -0.4837
    1AIB   HB11   11  13.593  38.370  27.091  1.9806 -4.8172  0.1926
    1AIB   HB12   12  13.567  38.493  27.202 -1.0642 -0.8519 -2.7742
    1AIB   HB13   13  13.581  38.340  27.269  1.7134  1.3570  1.6824
    1AIB    CB2   14  13.802  38.292  27.302  0.6005  0.1448  0.8745
    1AIB   HB21   15  13.740  38.302  27.394 -2.6393  0.8407 -1.2249
    1AIB   HB22   16  13.909  38.284  27.330  0.3512 -3.3010  1.2111
    1AIB   HB23   17  13.777  38.195  27.254 -0.5023  2.4764 -3.9493
    1AIB      C   18  13.854  38.406  27.082 -0.2473 -0.1225 -0.0352
    1AIB      O   19  13.856  38.496  27.005  0.7466  0.2670 -0.8500
    2AIB      N   20  13.920  38.293  27.058 -0.3301  1.6370 -0.0846
    2AIB     HN   21  13.916  38.215  27.119  3.0571  1.3095 -0.0768
    2AIB     CA   22  13.976  38.254  26.925  0.2199 -1.0239 -2.5477
    2AIB    CB1   23  13.858  38.207  26.853  0.1739 -0.0855 -0.0047
    2AIB   HB11   24  13.775  38.281  26.849 -0.4014 -0.1370  4.7967
    2AIB   HB12   25  13.811  38.120  26.903 -0.2427  0.2589  0.2019
    2AIB   HB13   26  13.873  38.177  26.747 -1.1511 -1.5317  0.1858
    2AIB    CB2   27  14.072  38.136  26.946  0.6519  0.5039  0.6123
    2AIB   HB21   28  14.158  38.154  27.014  0.1613  3.4329  0.5437
    2AIB   HB22   29  14.109  38.111  26.844  0.3446  1.4831  0.2441
    2AIB   HB23   30  14.023  38.048  26.994  1.6103 -0.9241 -0.8930
    2AIB      C   31  14.046  38.369  26.840 -1.0507  1.0399 -0.6272
    2AIB      O   32  14.041  38.374  26.714  0.5514  0.5881  0.5285
    3AIB      N   33  14.126  38.458  26.909  0.4672 -0.9093 -0.8167
    3AIB     HN   34  14.150  38.454  27.005  2.9508  1.2652 -1.2268
    3AIB     CA   35  14.192  38.572  26.847  0.0928  0.0061 -0.7527
    3AIB    CB1   36  14.321  38.526  26.786  0.1403 -1.0701  0.3273
    3AIB   HB11   37  14.309  38.485  26.684 -2.4240  1.1873 -0.3786
    3AIB   HB12   38  14.379  38.461  26.856  2.4234  1.8400  1.3626
    3AIB   HB13   39  14.376  38.622  26.786 -5.9805  2.9460  0.1291
    3AIB    CB2   40  14.223  38.671  26.963 -0.3273  0.6483  0.7563
    3AIB   HB21   41  14.280  38.757  26.921 -2.0895  0.2496 -2.8831
    3AIB   HB22   42  14.270  38.632  27.055 -1.3910  1.5632  1.7221
    3AIB   HB23   43  14.128  38.708  27.008 -1.1168 -0.1709 -0.1984
    3AIB      C   44  14.101  38.652  26.741 -0.1700  0.3794  0.1017
    3AIB      O   45  14.139  38.702  26.636 -0.9167  1.1701 -0.3114
    4AIB      N   46  13.968  38.676  26.773 -0.4213 -1.4381  0.4083
    4AIB     HN   47  13.927  38.639  26.856 -1.2124  2.2936  1.8563
    4AIB     CA   48  13.873  38.765  26.706 -0.3247 -0.2098 -0.3040
    4AIB    CB1   49  13.925  38.907  26.722 -0.8713 -0.1233  0.2277
    4AIB   HB11   50  13.844  38.977  26.693  0.5338  0.1950 -3.5199
    4AIB   HB12   51  14.018  38.933  26.666 -1.3857  2.7577  0.5161
    4AIB   HB13   52  13.958  38.929  26.825  5.4134  3.2722 -1.9893
    4AIB    CB2   53  13.733  38.760  26.768 -0.5417 -0.7676  1.2060
    4AIB   HB21   54  13.699  38.657  26.790 -0.3648 -1.6059 -2.0485
    4AIB   HB22   55  13.657  38.808  26.702 -2.8949 -4.6044  0.8855
    4AIB   HB23   56  13.742  38.817  26.863  0.0128 -1.8955  1.8460
    4AIB      C   57  13.858  38.728  26.555 -0.2536  1.4333  0.8719
    4AIB      O   58  13.857  38.815  26.470  0.0539  0.5695  1.0831
    5AIB      N   59  13.855  38.594  26.511 -0.2628 -0.1451 -0.2559
    5AIB     HN   60  13.865  38.522  26.579 -1.3607  1.5667  1.8836
    5AIB     CA   61  13.800  38.548  26.389 -0.2936  0.6213  0.9345
    5AIB    CB1   62  13.656  38.585  26.365 -0.1160  0.2967 -0.7469
    5AIB   HB11   63  13.614  38.530  26.278  1.8329 -0.2174 -1.4069
    5AIB   HB12   64  13.640  38.688  26.324 -2.9569  0.1401 -0.1742
    5AIB   HB13   65  13.598  38.564  26.457  3.3395 -1.4237  1.2143
    5AIB    CB2   66  13.823  38.403  26.401 -0.5511  1.2533 -0.3127
    5AIB   HB21   67  13.779  38.354  26.311 -1.3705  0.8864  0.2779
    5AIB   HB22   68  13.765  38.372  26.491 -1.1786 -3.0250 -1.9819
    5AIB   HB23   69  13.927  38.365  26.411 -1.4280 -1.6373 -1.1730
    5AIB      C   70  13.881  38.587  26.258  0.5028  0.2605 -0.0128
    5AIB      O   71  13.835  38.593  26.145  0.3814  0.1985 -1.0855
    6AIB      N   72  14.014  38.599  26.288 -0.8880 -0.3039 -0.9249
    6AIB     HN   73  14.029  38.589  26.387  1.4320  0.1072 -1.1534
    6AIB     CA   74  14.135  38.630  26.214 -0.5633  1.1587  0.0602
    6AIB    CB1   75  14.167  38.505  26.134  0.6293  0.5722  0.9056
    6AIB   HB11   76  14.160  38.417  26.203  1.0872 -0.2081 -0.0198
    6AIB   HB12   77  14.276  38.507  26.110  1.5205 -5.1171  2.6891
    6AIB   HB13   78  14.109  38.485  26.042  3.6629 -0.7550 -0.8260
    6AIB    CB2   79  14.255  38.641  26.316 -0.1389  0.4106  0.0624
    6AIB   HB21   80  14.238  38.712  26.401 -2.2597 -2.0250  1.7956
    6AIB   HB22   81  14.350  38.649  26.259 -1.0806 -1.7279 -1.9923
    6AIB   HB23   82  14.249  38.540  26.361 -0.6663 -0.3536 -1.6731
    6AIB      C   83  14.106  38.765  26.136 -0.2264 -1.8062 -0.4737
    6AIB      O   84  14.131  38.775  26.018  0.5869  0.1696  0.4566
    7AIB      N   85  14.059  38.875  26.203 -0.7799 -0.1552  0.1393
    7AIB     HN   86  14.026  38.860  26.297 -3.0067  3.0093  0.0069
    7AIB     CA   87  14.068  39.013  26.154 -0.7766  0.0855  0.9234
    7AIB    CB1   88  14.223  39.057  26.158 -0.0068 -0.1988 -0.7055
    7AIB   HB11   89  14.220  39.163  26.122 -1.8528 -0.1119 -0.3565
    7AIB   HB12   90  14.282  38.988  26.094  0.7429 -0.2759  0.0517
    7AIB   HB13   91  14.258  39.034  26.261 -0.5760  2.3101  0.1085
    7AIB    CB2   92  13.990  39.102  26.257 -0.9984  0.0970 -0.2723
    7AIB   HB21   93  14.037  39.203  26.249 -1.0986  0.0195 -2.4830
    7AIB   HB22   94  13.997  39.057  26.358 -1.6861 -0.1453 -0.3220
    7AIB   HB23   95  13.884  39.126  26.231 -1.5951 -2.0322 -0.0075
    7AIB      C   96  14.018  39.037  26.003  0.7492  0.1166 -0.6998
    7AIB      O   97  14.065  39.115  25.922 -0.7776 -0.5297  0.4254
    8AIB      N   98  13.908  38.962  25.970 -0.1208  0.6018  0.4286
    8AIB     HN   99  13.889  38.883  26.027 -1.4798  0.3985 -0.2429
    8AIB     CA  100  13.814  38.974  25.860  0.3237  1.1128 -0.1555
    8AIB    CB1  101  13.769  39.113  25.827  0.5064  0.5199  0.0588
    8AIB   HB11  102  13.690  39.104  25.749  1.9099  1.2667 -1.5162
    8AIB   HB12  103  13.838  39.185  25.777  1.0016 -1.1009 -1.6942
    8AIB   HB13  104  13.734  39.160  25.922  2.2550  0.7185  0.6245
    8AIB    CB2  105  13.689  38.889  25.890 -0.0751  0.0836  0.2724
    8AIB   HB21  106  13.626  38.891  25.799 -3.7382  0.3406  2.5899
    8AIB   HB22  107  13.638  38.943  25.973  0.1005 -2.5139  2.1949
    8AIB   HB23  108  13.702  38.783  25.921 -2.7197 -1.3121 -2.7149
    8AIB      C  109  13.871  38.908  25.735 -0.6548 -0.5981  0.1861
    8AIB      O  110  13.831  38.937  25.618 -0.4730  0.0255 -0.2708
    9AIB      N  111  13.977  38.825  25.756  1.8901  0.2042 -0.1393
    9AIB     HN  112  14.026  38.815  25.842  2.0712 -0.6966 -0.3418
    9AIB     CA  113  14.037  38.753  25.652 -0.4262 -0.1896 -0.7769
    9AIB    CB1  114  13.938  38.656  25.587  0.7134 -0.7747 -1.3401
    9AIB   HB11  115  13.969  38.563  25.534 -0.8339 -1.2870 -1.4049
    9AIB   HB12  116  13.894  38.717  25.505  0.8188  1.1759 -0.0332
    9AIB   HB13  117  13.865  38.642  25.670  2.1358 -2.4382 -0.2849
    9AIB    CB2  118  14.143  38.675  25.709 -0.3752 -0.0373 -0.4325
    9AIB   HB21  119  14.216  38.708  25.786 -0.2201 -3.0241  0.8711
    9AIB   HB22  120  14.217  38.647  25.632  0.6732 -0.1974  0.6011
    9AIB   HB23  121  14.100  38.575  25.732  0.2366 -0.2426 -0.1345
    9AIB      C  122  14.119  38.844  25.560 -0.3784  0.6326  0.9452
    9AIB      O  123  14.173  38.790  25.456 -0.5994  0.0645 -0.7203
    9AIB     NT  124  14.130  38.974  25.587  0.0824  0.1037  0.2125
    9AIB    HNT  125  14.068  39.015  25.654 -2.2243  0.8360 -2.2026
    9AIB    CAT  126  14.214  39.071  25.517  0.0441  0.6135 -0.4756
    9AIB    HT1  127  14.230  39.083  25.408  0.8584  0.2616 -0.4009
    9AIB    HT2  128  14.317  39.072  25.558 -0.5521 -1.6317  1.3034
    9AIB    HT3  129  14.166  39.167  25.545 -3.7469 -0.4880 -2.3930
  42.09246  42.09246  42.09246
