Protein
   42
    1ACE   HH31    1  16.572  15.354   4.503 -1.6514 -0.3274  1.4067
    1ACE    CH3    2  16.516  15.303   4.424  0.3596 -0.2965 -0.1458
    1ACE   HH32    3  16.476  15.389   4.370  2.5805  0.6693 -0.3427
    1ACE   HH33    4  16.446  15.242   4.480  1.6934 -1.5449  0.2187
    1ACE      C    5  16.613  15.228   4.341  0.2637 -0.2767  0.2481
    1ACE      O    6  16.609  15.106   4.329 -0.0206  0.1137  0.0206
    2ALA      N    7  16.714  15.305   4.292  0.4230  1.0409  0.1866
    2ALA      H    8  16.724  15.401   4.323 -0.0123  1.3226 -0.5271
    2ALA     CA    9  16.820  15.260   4.198  0.5143  0.1183  0.1257
    2ALA     HA   10  16.770  15.211   4.115 -0.0261  3.0310 -1.3993
    2ALA     CB   11  16.891  15.385   4.141  0.5832 -0.4841  0.1335
    2ALA    HB1   12  16.945  15.414   4.231 -1.3897 -1.4952  1.7193
    2ALA    HB2   13  16.954  15.354   4.058  1.2847 -0.8176  0.7790
    2ALA    HB3   14  16.821  15.464   4.113  1.3334  0.4035  0.6841
    2ALA      C   15  16.925  15.171   4.272 -0.1138  0.6608  0.5447
    2ALA      O   16  16.964  15.199   4.384 -0.2263 -0.2770 -0.4958
    3ALA      N   17  16.972  15.065   4.210 -0.4107 -0.9494  0.3782
    3ALA      H   18  17.039  15.009   4.261  0.9418  0.6993  0.4813
    3ALA     CA   19  16.941  15.017   4.074  0.0727 -0.9904 -0.1514
    3ALA     HA   20  16.912  15.099   4.007  0.3309 -0.6672  0.1244
    3ALA     CB   21  17.067  14.960   4.009  0.0343 -0.5900 -0.4130
    3ALA    HB1   22  17.123  14.882   4.060  1.5094  0.8436  0.2656
    3ALA    HB2   23  17.032  14.921   3.914 -1.1264 -0.4318 -0.0564
    3ALA    HB3   24  17.134  15.043   3.985 -2.0657  0.9812 -1.1111
    3ALA      C   25  16.825  14.913   4.082 -0.7028  0.0654 -0.0861
    3ALA      O   26  16.791  14.861   3.975 -0.3664  0.0699 -0.2675
    4ALA      N   27  16.772  14.867   4.199  0.8309 -0.3697  0.2428
    4ALA      H   28  16.794  14.915   4.285  2.2176  0.4170 -0.5222
    4ALA     CA   29  16.674  14.756   4.220 -0.5722 -0.7542 -0.1745
    4ALA     HA   30  16.707  14.660   4.180 -0.4190 -0.2912 -1.2117
    4ALA     CB   31  16.659  14.746   4.371  0.3310  0.3282  0.6678
    4ALA    HB1   32  16.764  14.743   4.401  0.7066 -2.2081 -0.6693
    4ALA    HB2   33  16.599  14.828   4.412  0.0806  0.7842 -0.5790
    4ALA    HB3   34  16.612  14.652   4.401 -0.1207  1.0028  2.1982
    4ALA      C   35  16.537  14.778   4.144 -0.3688 -0.0393  0.6233
    4ALA      O   36  16.469  14.684   4.094  0.3548 -0.1428 -0.0950
    5NME      N   37  16.501  14.907   4.129  0.6384 -0.3148  0.5313
    5NME      H   38  16.562  14.980   4.164  1.2696 -0.2824 -0.5687
    5NME    CH3   39  16.366  14.946   4.087 -0.1197 -0.1993  0.3320
    5NME   HH31   40  16.375  14.994   3.990 -0.6584  1.7708  1.2115
    5NME   HH32   41  16.294  14.864   4.083 -0.1710 -0.1023 -1.0323
    5NME   HH33   42  16.334  15.017   4.163  0.1496 -1.2248  1.4630
  20.91516  20.91516  20.91516
