Protein
   32
    1ACE   HH31    1  13.900   3.173  19.468  2.9954  0.6828 -2.1833
    1ACE    CH3    2  13.872   3.278  19.465  0.2028  0.1310 -0.2146
    1ACE   HH32    3  13.894   3.321  19.563 -0.0957 -2.1872  0.9295
    1ACE   HH33    4  13.767   3.287  19.438  0.2221 -0.0221 -0.3392
    1ACE      C    5  13.958   3.328  19.355  0.5773  0.0817 -0.1403
    1ACE      O    6  14.039   3.411  19.376 -0.1155 -0.2297 -0.3526
    2ALA      N    7  13.935   3.268  19.240 -0.3844 -0.0508  0.6321
    2ALA      H    8  13.849   3.215  19.232 -0.7042  0.7697 -2.7393
    2ALA     CA    9  14.001   3.280  19.110 -0.2612 -0.3774 -0.5905
    2ALA     HA   10  14.039   3.182  19.082 -2.0722 -1.9261  1.8631
    2ALA     CB   11  13.898   3.313  19.004  0.2460  0.2508 -0.2548
    2ALA    HB1   12  13.948   3.340  18.911 -1.9266  1.8381 -1.0378
    2ALA    HB2   13  13.832   3.230  18.978 -0.2023  0.1730  1.0520
    2ALA    HB3   14  13.843   3.402  19.033  0.6874  1.6413 -3.2947
    2ALA      C   15  14.107   3.387  19.101 -0.8115 -0.0873  0.0493
    2ALA      O   16  14.072   3.500  19.066  0.0111 -0.3040 -0.4368
    3ALA      N   17  14.236   3.359  19.148 -0.1942  0.9620  0.0970
    3ALA      H   18  14.247   3.273  19.199 -1.9170  1.4765  1.4026
    3ALA     CA   19  14.352   3.444  19.120  0.6252  0.5164  0.1337
    3ALA     HA   20  14.328   3.498  19.029 -3.2015  0.3515  0.8897
    3ALA     CB   21  14.353   3.548  19.234  0.1417  0.1704  0.3142
    3ALA    HB1   22  14.266   3.612  19.223  0.2081  0.2287  0.1286
    3ALA    HB2   23  14.346   3.499  19.331  0.2118 -0.7318 -0.1268
    3ALA    HB3   24  14.443   3.609  19.225  0.4472 -0.0188  1.7817
    3ALA      C   25  14.485   3.363  19.112  0.0796 -1.2282  1.1188
    3ALA      O   26  14.485   3.239  19.120 -0.3808 -0.8783  0.2146
    4NME      N   27  14.594   3.432  19.097 -0.1786 -0.0704  0.0243
    4NME      H   28  14.577   3.532  19.092  0.2317 -0.0139 -0.2814
    4NME    CH3   29  14.731   3.385  19.112  0.3338  0.8856 -0.0773
    4NME   HH31   30  14.748   3.286  19.070 -0.4877  0.7111 -0.0108
    4NME   HH32   31  14.793   3.462  19.064  0.9338  0.5745  0.1801
    4NME   HH33   32  14.753   3.381  19.219 -0.7500 -1.0919  0.1132
  20.99041  20.99041  20.99041
