Protein
   32
    1ACE   HH31    1   8.969  15.273   5.733 -0.1774 -3.4910  0.0406
    1ACE    CH3    2   8.881  15.270   5.670 -0.0076 -0.0806 -0.5476
    1ACE   HH32    3   8.864  15.361   5.613  1.0417  0.2152 -0.4169
    1ACE   HH33    4   8.794  15.248   5.732  0.0828 -0.4454 -0.5447
    1ACE      C    5   8.904  15.148   5.585  0.2624  0.0144  0.0364
    1ACE      O    6   8.819  15.059   5.580 -0.3386  0.3919 -0.0360
    2ALA      N    7   9.021  15.139   5.525 -0.6739 -0.7016 -0.0628
    2ALA      H    8   9.082  15.219   5.537 -0.6960 -0.4948 -1.2428
    2ALA     CA    9   9.063  15.026   5.450  0.1178 -0.2348  0.3439
    2ALA     HA   10   9.046  14.939   5.514 -2.8978 -0.3537 -0.4391
    2ALA     CB   11   8.987  15.024   5.311 -0.3151 -0.1698  0.4165
    2ALA    HB1   12   8.996  15.124   5.267 -1.0953 -0.2169  0.1364
    2ALA    HB2   13   9.029  14.952   5.241 -0.9966  2.0946 -2.5230
    2ALA    HB3   14   8.880  15.009   5.322 -0.4430  0.6513  0.4004
    2ALA      C   15   9.213  15.032   5.422 -0.0244  0.4455  0.4534
    2ALA      O   16   9.290  14.934   5.442 -0.2747 -0.1689 -0.9144
    3ALA      N   17   9.254  15.157   5.394  0.2252  0.3888  0.1794
    3ALA      H   18   9.186  15.231   5.396 -1.8044 -1.4059  0.1315
    3ALA     CA   19   9.393  15.192   5.369  0.4900 -0.3598  0.2646
    3ALA     HA   20   9.434  15.106   5.317 -1.8648 -1.4588  0.0911
    3ALA     CB   21   9.393  15.313   5.278  0.3576  0.8697 -0.3010
    3ALA    HB1   22   9.366  15.295   5.174  1.1318 -0.1854 -0.3308
    3ALA    HB2   23   9.323  15.381   5.327 -0.3448  0.5461 -0.8460
    3ALA    HB3   24   9.490  15.363   5.283  0.4169  0.6443  1.3659
    3ALA      C   25   9.457  15.222   5.509 -0.2227 -0.7862 -0.3996
    3ALA      O   26   9.444  15.334   5.564  0.5870 -0.3020 -0.7550
    4NME      N   27   9.512  15.121   5.570  0.0423  0.0820 -0.3702
    4NME      H   28   9.503  15.028   5.533  0.5358 -0.6481  1.2353
    4NME    CH3   29   9.562  15.127   5.709 -0.0580 -0.2297 -0.7153
    4NME   HH31   30   9.662  15.169   5.719  0.1677  0.1910 -3.7042
    4NME   HH32   31   9.492  15.168   5.781  1.6277 -1.0205  1.4805
    4NME   HH33   32   9.581  15.028   5.751  1.6199 -0.2061 -1.3125
  20.99041  20.99041  20.99041
