Protein
   42
    1ACE   HH31    1   8.913  12.822   5.530 -1.3007 -4.7073 -1.3442
    1ACE    CH3    2   8.847  12.832   5.616  0.1189  0.3810 -0.4964
    1ACE   HH32    3   8.746  12.832   5.575  0.6636  1.7580 -2.0382
    1ACE   HH33    4   8.862  12.927   5.668  1.1753  0.6802 -1.3064
    1ACE      C    5   8.874  12.707   5.706 -0.6610  0.0194  0.3180
    1ACE      O    6   8.991  12.662   5.706 -0.3125 -0.3039  0.4242
    2ALA      N    7   8.773  12.660   5.777 -0.1995 -0.5895  0.0389
    2ALA      H    8   8.692  12.720   5.777  0.4797  0.4782 -3.2543
    2ALA     CA    9   8.758  12.551   5.871 -0.2855  0.3092  0.2183
    2ALA     HA   10   8.695  12.590   5.950 -1.0903  1.4990 -0.9725
    2ALA     CB   11   8.668  12.456   5.794 -0.7121  0.5040 -0.1676
    2ALA    HB1   12   8.651  12.361   5.844  0.8494 -1.8887 -3.8201
    2ALA    HB2   13   8.572  12.502   5.772 -1.3673 -0.7897 -0.1444
    2ALA    HB3   14   8.705  12.435   5.694 -2.5534  1.3295 -1.0745
    2ALA      C   15   8.886  12.488   5.924 -0.7729 -0.9190  0.0273
    2ALA      O   16   8.921  12.382   5.883 -0.2438 -0.2840  0.6212
    3ALA      N   17   8.961  12.553   6.015 -0.2819  0.1876  0.0039
    3ALA      H   18   9.026  12.494   6.067  0.0130  2.0154  1.8473
    3ALA     CA   19   8.933  12.682   6.078  0.6394 -0.4156  0.7771
    3ALA     HA   20   8.834  12.720   6.053  1.0710 -0.1030 -0.5459
    3ALA     CB   21   8.944  12.668   6.230  0.5875  0.3801 -0.0788
    3ALA    HB1   22   8.911  12.757   6.284 -0.5389 -0.7591  1.1605
    3ALA    HB2   23   8.888  12.580   6.261  0.0039  0.7435 -0.0955
    3ALA    HB3   24   9.050  12.657   6.254  1.1277  0.8387 -2.1012
    3ALA      C   25   9.036  12.789   6.028  0.3321  0.3214  0.0058
    3ALA      O   26   9.017  12.908   6.056  0.7608  0.0236  0.9745
    4ALA      N   27   9.135  12.756   5.939 -0.5498  1.1453 -0.0155
    4ALA      H   28   9.128  12.667   5.890  2.0262  0.3041  0.9926
    4ALA     CA   29   9.257  12.840   5.917 -0.2342  0.0166 -0.5354
    4ALA     HA   30   9.234  12.944   5.898  1.9128  0.4925 -0.8602
    4ALA     CB   31   9.337  12.824   6.047  0.2916 -0.1067 -0.2668
    4ALA    HB1   32   9.276  12.840   6.136  0.0450 -1.7511 -0.1033
    4ALA    HB2   33   9.384  12.727   6.057  0.8348  0.0900 -0.8587
    4ALA    HB3   34   9.416  12.899   6.046  1.4844 -1.3145 -1.9432
    4ALA      C   35   9.355  12.798   5.803  0.2037 -0.5415 -0.1606
    4ALA      O   36   9.464  12.852   5.798 -0.3173 -0.0245  0.1350
    5NME      N   37   9.321  12.694   5.722 -0.1883  0.1015 -0.0332
    5NME      H   38   9.225  12.667   5.736 -0.6854  2.9281  3.2958
    5NME    CH3   39   9.400  12.639   5.616  0.3337  0.3268 -0.1450
    5NME   HH31   40   9.482  12.704   5.583  0.1617  1.0431  0.7667
    5NME   HH32   41   9.447  12.544   5.642  1.6600  1.7905  3.3840
    5NME   HH33   42   9.338  12.625   5.527 -0.1273 -0.1642  0.2511
  20.91516  20.91516  20.91516
