Protein
   32
    1ACE   HH31    1  13.706   5.964   6.255 -3.5086 -0.5306 -1.2690
    1ACE    CH3    2  13.721   5.862   6.291  0.4104  0.2570 -0.2038
    1ACE   HH32    3  13.749   5.861   6.396 -2.6889  4.4821  0.9692
    1ACE   HH33    4  13.782   5.793   6.233 -0.4011 -0.9944  0.3986
    1ACE      C    5  13.596   5.785   6.298 -0.3158 -0.1116  0.8228
    1ACE      O    6  13.572   5.701   6.386  0.1202  0.2431  0.4926
    2ALA      N    7  13.507   5.809   6.196  0.0034 -0.4267 -0.1201
    2ALA      H    8  13.513   5.892   6.139 -1.7661 -0.3954 -0.3100
    2ALA     CA    9  13.379   5.742   6.174  0.6062  0.1411  0.2951
    2ALA     HA   10  13.338   5.740   6.275 -0.1401 -0.6573 -0.0185
    2ALA     CB   11  13.283   5.833   6.086 -0.2025 -0.3195 -0.2953
    2ALA    HB1   12  13.279   5.932   6.130 -1.0992 -0.5498  0.1939
    2ALA    HB2   13  13.322   5.828   5.984  1.5313  1.1659  0.2516
    2ALA    HB3   14  13.184   5.786   6.094  0.1096 -0.6367  2.2551
    2ALA      C   15  13.384   5.588   6.141  0.0777 -0.3447 -0.4882
    2ALA      O   16  13.303   5.540   6.064  0.3680  0.5506 -0.1759
    3ALA      N   17  13.477   5.514   6.205 -0.9032 -0.0331  0.1044
    3ALA      H   18  13.543   5.565   6.261  0.8020 -1.9600 -0.0240
    3ALA     CA   19  13.501   5.369   6.187  0.0805 -0.2783 -0.1577
    3ALA     HA   20  13.484   5.349   6.081 -0.3163  0.5127 -0.2534
    3ALA     CB   21  13.652   5.347   6.225  0.8514  0.8904  0.3997
    3ALA    HB1   22  13.712   5.412   6.162  0.9561 -0.0394 -0.4810
    3ALA    HB2   23  13.667   5.350   6.333  1.9300 -1.2509  0.3581
    3ALA    HB3   24  13.690   5.248   6.199 -0.3769  1.0826 -2.5143
    3ALA      C   25  13.402   5.286   6.266  0.6927 -0.5655  0.4618
    3ALA      O   26  13.376   5.172   6.229 -0.1719 -0.1975 -0.3547
    4NME      N   27  13.351   5.343   6.376 -0.6247 -0.4677 -0.1895
    4NME      H   28  13.390   5.433   6.400 -1.3963 -0.5325  1.5122
    4NME    CH3   29  13.262   5.264   6.461 -0.9714  0.3482 -0.1771
    4NME   HH31   30  13.319   5.178   6.497  1.3316  0.4164 -3.2337
    4NME   HH32   31  13.242   5.331   6.544  1.5707  0.8972  0.1013
    4NME   HH33   32  13.187   5.227   6.391  0.5995 -1.4444 -1.0512
  20.99041  20.99041  20.99041
