<<<<<<< HEAD
Protein
   42
    1ACE   HH31    1   8.732   9.135   2.642  0.7368 -0.6951 -0.7111
    1ACE    CH3    2   8.648   9.153   2.575 -0.3207  0.5732  0.8827
    1ACE   HH32    3   8.644   9.067   2.507  0.3880 -0.2145  1.8207
    1ACE   HH33    4   8.670   9.243   2.517  2.4380 -0.5743 -0.0130
    1ACE      C    5   8.510   9.167   2.639 -0.2982  0.0926  0.2086
    1ACE      O    6   8.462   9.275   2.618 -0.5102 -0.0934 -0.0442
    2ALA      N    7   8.461   9.055   2.694  0.3572 -0.8391  0.5668
    2ALA      H    8   8.519   8.972   2.688  0.4834 -0.6723 -1.6222
    2ALA     CA    9   8.329   9.034   2.752 -0.4246 -0.7782 -0.0126
    2ALA     HA   10   8.257   9.029   2.670  0.0459 -1.8483 -0.3655
    2ALA     CB   11   8.338   8.905   2.829  0.4019 -0.0691 -0.5491
    2ALA    HB1   12   8.418   8.910   2.903  0.3133 -1.1942 -0.3608
    2ALA    HB2   13   8.242   8.888   2.877 -0.1760  0.3916 -1.4934
    2ALA    HB3   14   8.364   8.820   2.766 -0.3166 -1.5254  1.0513
    2ALA      C   15   8.296   9.151   2.847 -0.2183 -0.1503  0.3933
    2ALA      O   16   8.335   9.146   2.961  0.0675  0.6783 -0.1175
    3ALA      N   17   8.226   9.251   2.793 -0.4991 -0.0581 -0.5446
    3ALA      H   18   8.186   9.226   2.703  0.9319  0.4523 -1.3587
    3ALA     CA   19   8.181   9.380   2.858  0.0335  0.1005  0.2148
    3ALA     HA   20   8.135   9.433   2.775 -2.2122 -0.7108  0.8701
    3ALA     CB   21   8.063   9.357   2.961  0.5957  0.5476 -1.0921
    3ALA    HB1   22   8.032   9.460   2.983 -0.0980  0.4040 -1.3681
    3ALA    HB2   23   7.985   9.294   2.917  0.6726  0.6899 -1.4439
    3ALA    HB3   24   8.108   9.314   3.050  0.1110  1.1894 -0.5150
    3ALA      C   25   8.295   9.470   2.907  0.4066 -0.5673 -1.0125
    3ALA      O   26   8.276   9.543   3.006  0.4175  0.7611 -0.3847
    4ALA      N   27   8.416   9.451   2.847  0.4762  0.2663 -0.4813
    4ALA      H   28   8.404   9.384   2.771  2.5583 -0.4955 -0.1796
    4ALA     CA   29   8.550   9.504   2.873  0.2256 -0.3177 -0.4781
    4ALA     HA   30   8.581   9.562   2.786  0.6667  0.1563 -0.0185
    4ALA     CB   31   8.546   9.597   2.998 -0.0814  0.0400 -0.5085
    4ALA    HB1   32   8.639   9.654   3.002 -0.3159  0.5291 -1.6130
    4ALA    HB2   33   8.468   9.673   2.993 -0.3367 -0.1592  0.3222
    4ALA    HB3   34   8.533   9.535   3.086 -2.3130 -1.3876 -1.7528
    4ALA      C   35   8.657   9.394   2.886  0.7383 -0.4850  0.0874
    4ALA      O   36   8.768   9.400   2.826  1.0538 -0.1778  0.0347
    5NME      N   37   8.616   9.286   2.949  0.0614 -0.3528 -0.2837
    5NME      H   38   8.525   9.288   2.992 -0.1890 -1.1710 -0.7456
    5NME    CH3   39   8.701   9.178   2.988 -0.5241 -0.1625 -0.2862
    5NME   HH31   40   8.747   9.137   2.898 -2.7996 -1.8224 -0.7570
    5NME   HH32   41   8.782   9.213   3.051 -0.7200 -1.7238  0.8918
    5NME   HH33   42   8.642   9.099   3.035 -0.6540  0.3958  0.5231
  20.91516  20.91516  20.91516
=======
Protein
   42
    1ACE   HH31    1   2.466  13.717  20.166 -1.1681  0.6105  3.0716
    1ACE    CH3    2   2.465  13.814  20.115 -0.8594 -0.5225  0.8076
    1ACE   HH32    3   2.552  13.825  20.051 -2.2649  1.4983 -0.9468
    1ACE   HH33    4   2.455  13.888  20.194 -3.3238  0.5032 -0.3355
    1ACE      C    5   2.338  13.803  20.031 -0.2489 -0.8882 -0.5041
    1ACE      O    6   2.243  13.749  20.086  0.2433  0.1679  0.7322
    2ALA      N    7   2.334  13.856  19.910 -0.4803 -0.7822 -0.2233
    2ALA      H    8   2.415  13.907  19.878  0.4227 -3.3800 -2.5255
    2ALA     CA    9   2.216  13.861  19.827 -0.6316 -0.1832  0.0857
    2ALA     HA   10   2.136  13.899  19.891 -0.1681 -0.2269  0.6966
    2ALA     CB   11   2.231  13.966  19.724 -0.5476 -0.2343 -0.3898
    2ALA    HB1   12   2.315  13.958  19.655 -1.5993 -0.8994 -1.6337
    2ALA    HB2   13   2.134  13.983  19.678 -2.0790 -1.8541  1.9539
    2ALA    HB3   14   2.237  14.056  19.784 -0.8438 -0.2585 -0.3207
    2ALA      C   15   2.182  13.724  19.774 -0.2077  0.1066  0.1030
    2ALA      O   16   2.230  13.679  19.672 -0.2759 -0.2992  0.0401
    3ALA      N   17   2.087  13.654  19.844  0.1760 -0.0325 -0.0225
    3ALA      H   18   2.049  13.695  19.928  0.5010 -1.3242  0.7829
    3ALA     CA   19   2.056  13.509  19.833  0.9568 -0.0483 -0.1423
    3ALA     HA   20   1.971  13.488  19.899  1.6152 -0.8040  0.4806
    3ALA     CB   21   2.001  13.478  19.689  0.0177  0.0624  0.4141
    3ALA    HB1   22   2.080  13.483  19.614 -0.8153  0.1919 -0.4818
    3ALA    HB2   23   1.959  13.378  19.689  1.7100 -0.7016  2.2336
    3ALA    HB3   24   1.925  13.553  19.666 -0.0644  0.8383  2.8999
    3ALA      C   25   2.161  13.414  19.872  0.8638 -0.0054  0.4886
    3ALA      O   26   2.127  13.324  19.947  0.5057  0.2435  0.2118
    4ALA      N   27   2.277  13.438  19.815  0.5228 -0.1062  0.0654
    4ALA      H   28   2.263  13.510  19.746  2.5212  1.5951  1.3000
    4ALA     CA   29   2.407  13.384  19.826 -0.4209  0.2720  0.3888
    4ALA     HA   30   2.441  13.392  19.723 -1.2786 -0.4469  0.0345
    4ALA     CB   31   2.486  13.482  19.921  0.5507 -0.4994  0.5639
    4ALA    HB1   32   2.482  13.587  19.889 -1.1679 -0.3170  1.3296
    4ALA    HB2   33   2.449  13.468  20.023  0.4920  0.0098  0.6145
    4ALA    HB3   34   2.592  13.457  19.917  1.0634  1.4964 -2.2987
    4ALA      C   35   2.429  13.236  19.873 -0.9339  0.3147 -0.0995
    4ALA      O   36   2.544  13.198  19.909 -0.0968  0.1174 -0.2310
    5NME      N   37   2.326  13.154  19.866 -0.0824  0.5784  0.1963
    5NME      H   38   2.237  13.189  19.833  0.7858 -0.1620 -3.3062
    5NME    CH3   39   2.317  13.019  19.913 -1.1736  0.2998  0.0394
    5NME   HH31   40   2.316  13.016  20.022 -1.0363 -1.5618  0.0275
    5NME   HH32   41   2.233  12.968  19.867  0.8097 -0.9342 -2.5308
    5NME   HH33   42   2.412  12.978  19.877 -0.7897  1.5106 -0.3642
  20.91516  20.91516  20.91516
>>>>>>> e505351e8895c44bcd67ad8436d05c0eaca14691
