Protein
   32
    1ACE   HH31    1   2.741   7.837   7.405 -0.5419  0.9125  1.5372
    1ACE    CH3    2   2.831   7.870   7.458  0.5702  0.1365  0.1901
    1ACE   HH32    3   2.810   7.948   7.531 -2.6666 -0.1316 -0.3015
    1ACE   HH33    4   2.899   7.921   7.390 -1.4851  2.1529 -0.5335
    1ACE      C    5   2.897   7.754   7.530  0.4659  0.0274 -0.3762
    1ACE      O    6   2.907   7.755   7.651  0.2873  0.5669  0.3436
    2ALA      N    7   2.944   7.657   7.454 -0.2800  0.2320  0.1184
    2ALA      H    8   2.909   7.657   7.360 -1.9063 -1.2051  0.6769
    2ALA     CA    9   3.039   7.548   7.486  0.0019 -0.4098  0.0470
    2ALA     HA   10   2.991   7.493   7.567  2.3684 -0.9810  1.1625
    2ALA     CB   11   3.052   7.472   7.355 -0.4693 -0.5269  0.2923
    2ALA    HB1   12   2.951   7.449   7.321 -0.6524 -1.7022  1.5502
    2ALA    HB2   13   3.112   7.528   7.283  1.1407 -0.1992  1.8095
    2ALA    HB3   14   3.106   7.382   7.381  0.5745  0.4320  1.5987
    2ALA      C   15   3.176   7.596   7.544 -0.1148  0.5948 -0.4125
    2ALA      O   16   3.273   7.527   7.517 -0.0848  0.4571 -0.0526
    3ALA      N   17   3.189   7.707   7.617  0.1812  0.0245 -0.0023
    3ALA      H   18   3.106   7.753   7.652  0.0117  0.2694 -0.6986
    3ALA     CA   19   3.318   7.760   7.668 -0.0017  0.0677  0.0835
    3ALA     HA   20   3.386   7.732   7.588 -1.9693 -1.5361 -1.1309
    3ALA     CB   21   3.316   7.909   7.680  0.2365 -0.5958 -0.1269
    3ALA    HB1   22   3.284   7.938   7.780  2.2889 -1.6942  0.9312
    3ALA    HB2   23   3.414   7.955   7.668 -0.3948  1.4498  1.8084
    3ALA    HB3   24   3.256   7.952   7.600  0.9705 -0.1309 -0.4403
    3ALA      C   25   3.368   7.678   7.788 -0.2899 -0.5255  0.2966
    3ALA      O   26   3.320   7.696   7.899  0.4651  0.1041  0.2273
    4NME      N   27   3.450   7.573   7.764 -0.2557 -0.8543 -0.1449
    4NME      H   28   3.491   7.571   7.672  0.1432 -0.7841  0.0294
    4NME    CH3   29   3.505   7.480   7.855 -0.6854 -0.3802  0.0269
    4NME   HH31   30   3.564   7.525   7.935  0.2200 -1.1116 -0.2119
    4NME   HH32   31   3.417   7.423   7.884 -2.3080 -0.4180 -4.3802
    4NME   HH33   32   3.564   7.401   7.809  0.8054  0.6191  0.1297
  20.99041  20.99041  20.99041
