Protein
   32
    1ACE   HH31    1  11.875  10.154  12.614  2.0315  2.2599  1.6072
    1ACE    CH3    2  11.950  10.123  12.541 -0.5622 -0.6190 -0.1353
    1ACE   HH32    3  12.020  10.041  12.558  0.5436 -0.1687 -2.2002
    1ACE   HH33    4  12.012  10.212  12.555 -0.9757 -0.0825 -1.5450
    1ACE      C    5  11.894  10.126  12.401  0.2883  0.6594 -0.1704
    1ACE      O    6  11.935  10.207  12.320  0.4490  0.3272  0.4729
    2ALA      N    7  11.815  10.019  12.374  0.3381  0.2586 -0.3125
    2ALA      H    8  11.832   9.938  12.431 -0.4356  0.3621  0.0733
    2ALA     CA    9  11.736  10.011  12.246 -0.0244 -0.7855 -0.4795
    2ALA     HA   10  11.671   9.924  12.241  0.0396 -0.8862  0.2759
    2ALA     CB   11  11.643  10.134  12.226 -0.3442 -0.0679  0.5678
    2ALA    HB1   12  11.705  10.223  12.226  2.1687 -1.7194  0.2228
    2ALA    HB2   13  11.577  10.115  12.141 -0.0738 -0.0124  0.3472
    2ALA    HB3   14  11.580  10.138  12.315 -0.1850  5.0167  0.7305
    2ALA      C   15  11.801   9.973  12.117 -0.4660  0.4924  1.2672
    2ALA      O   16  11.754   9.886  12.044 -0.0710  0.1314 -0.0529
    3ALA      N   17  11.920  10.033  12.088  0.0719 -0.2402 -0.2188
    3ALA      H   18  11.956  10.108  12.146  1.4815 -0.8677 -0.2458
    3ALA     CA   19  11.998   9.995  11.962  0.1817 -0.4045 -0.3411
    3ALA     HA   20  11.921   9.971  11.888  0.1428 -1.2123 -0.0484
    3ALA     CB   21  12.087  10.116  11.919  0.7955 -0.0285  0.3116
    3ALA    HB1   22  12.157  10.088  11.841  0.9041  0.5647  0.1801
    3ALA    HB2   23  12.021  10.198  11.889 -1.5689 -2.7819 -2.9249
    3ALA    HB3   24  12.152  10.146  12.001  1.2097  1.2760 -0.4594
    3ALA      C   25  12.075   9.860  11.978  0.4575  0.4558 -0.2630
    3ALA      O   26  12.200   9.852  11.982  0.1455 -0.3319  0.3761
    4NME      N   27  11.998   9.750  11.984  0.0413  0.5172  0.6559
    4NME      H   28  11.899   9.759  11.967  0.1455 -0.3795 -0.5672
    4NME    CH3   29  12.052   9.612  12.001  0.3171 -0.8153  0.6323
    4NME   HH31   30  11.982   9.553  12.061  0.3196 -0.3207  1.1310
    4NME   HH32   31  12.085   9.569  11.906 -1.6367 -1.1043  0.0496
    4NME   HH33   32  12.143   9.623  12.060 -0.8591  0.9057  2.2080
  20.99041  20.99041  20.99041
