Protein
   60
    1ACE   HH31    1  17.722  19.738  22.155 -0.8599  1.8063  0.2517
    1ACE    CH3    2  17.825  19.772  22.161 -0.0071 -0.5021 -0.3668
    1ACE   HH32    3  17.841  19.866  22.215  1.3626 -1.8177  1.6641
    1ACE   HH33    4  17.881  19.692  22.209  2.9849  2.5382  1.6792
    1ACE      C    5  17.878  19.788  22.016 -0.0827  0.8254 -0.2543
    1ACE      O    6  17.956  19.713  21.967 -0.0474  0.6182  0.0805
    2TRP      N    7  17.852  19.898  21.948  0.3542  0.1786  0.5862
    2TRP      H    8  17.891  19.903  21.855 -3.2452  1.5051 -1.0199
    2TRP     CA    9  17.763  20.010  21.981 -0.1895  0.3906 -0.9554
    2TRP     HA   10  17.698  19.980  22.063  0.8369 -1.2891 -0.7130
    2TRP     CB   11  17.849  20.129  22.030  0.2985  0.0195 -0.1147
    2TRP    HB1   12  17.778  20.212  22.028 -0.7741 -0.8889 -0.6038
    2TRP    HB2   13  17.928  20.150  21.959  1.4847 -1.0708  0.8413
    2TRP     CG   14  17.916  20.108  22.163 -0.2935 -0.4181 -0.4850
    2TRP    CD1   15  18.048  20.067  22.174  0.1235  0.5481  0.5363
    2TRP    HD1   16  18.110  20.034  22.091 -0.4373  0.0008  0.3170
    2TRP    NE1   17  18.082  20.068  22.309 -0.2497 -0.3855 -0.1876
    2TRP    HE1   18  18.166  20.027  22.347 -1.3148 -2.8519 -0.2776
    2TRP    CE2   19  17.983  20.128  22.386  0.0495 -0.6673  0.7575
    2TRP    CZ2   20  17.981  20.162  22.520  0.1796  0.5643 -0.0918
    2TRP    HZ2   21  18.077  20.148  22.566  0.2181  1.2959  0.0487
    2TRP    CH2   22  17.861  20.200  22.585  0.3204  0.3854 -0.0659
    2TRP    HH2   23  17.854  20.221  22.691 -1.3099 -0.8417  0.1101
    2TRP    CZ3   24  17.748  20.206  22.504  0.6940 -0.0747 -0.0653
    2TRP    HZ3   25  17.660  20.255  22.543  1.1742  2.8804 -2.3422
    2TRP    CE3   26  17.753  20.178  22.365 -0.2262  0.2973 -0.8664
    2TRP    HE3   27  17.660  20.184  22.310 -0.3153  0.4281 -0.7039
    2TRP    CD2   28  17.868  20.135  22.302 -0.6962  0.0311  0.2075
    2TRP      C   29  17.688  20.051  21.855 -0.2530 -0.4750 -0.2021
    2TRP      O   30  17.735  20.051  21.745  0.1333 -0.0434  0.7896
    3TRP      N   31  17.563  20.097  21.861  0.9476  0.2996 -0.0022
    3TRP      H   32  17.521  20.140  21.780 -1.0267 -1.4966 -0.0393
    3TRP     CA   33  17.463  20.064  21.971 -0.3541 -0.1398 -0.2296
    3TRP     HA   34  17.490  19.977  22.031 -0.8998  0.5136  1.0132
    3TRP     CB   35  17.334  20.027  21.911  0.6429  0.2156  0.3030
    3TRP    HB1   36  17.339  19.930  21.862 -0.0327 -0.2417  1.0941
    3TRP    HB2   37  17.259  20.012  21.990 -0.1682 -1.8344 -0.7873
    3TRP     CG   38  17.282  20.123  21.807  0.2359  0.1968  0.6483
    3TRP    CD1   39  17.302  20.121  21.671 -0.6078 -0.2252 -0.1542
    3TRP    HD1   40  17.362  20.052  21.614  0.1800  1.4833 -1.5352
    3TRP    NE1   41  17.234  20.226  21.613  0.4823  0.3173  0.0818
    3TRP    HE1   42  17.223  20.241  21.514 -1.3042 -3.7032 -0.5493
    3TRP    CE2   43  17.155  20.287  21.701 -0.1790  0.0788  0.0714
    3TRP    CZ2   44  17.070  20.400  21.690  0.1748  0.4136 -0.1757
    3TRP    HZ2   45  17.038  20.440  21.595 -2.6238 -1.8618 -0.3373
    3TRP    CH2   46  17.008  20.446  21.804 -0.7881 -0.3266  0.6584
    3TRP    HH2   47  16.937  20.528  21.801 -1.1190 -0.5800  1.2897
    3TRP    CZ3   48  17.037  20.392  21.931 -0.3521  0.5576 -0.0929
    3TRP    HZ3   49  16.998  20.436  22.022  0.5714 -0.4370  0.8028
    3TRP    CE3   50  17.114  20.275  21.943  0.0348  0.0478 -0.4670
    3TRP    HE3   51  17.134  20.232  22.040  0.9988  1.0473 -0.2001
    3TRP    CD2   52  17.181  20.227  21.827 -0.2577  0.1265 -0.2915
    3TRP      C   53  17.447  20.175  22.076 -0.1361 -0.1840  0.3545
    3TRP      O   54  17.431  20.142  22.189 -0.1368 -0.5168 -0.7085
    4NME      N   55  17.476  20.298  22.033  0.4343 -0.2197  0.3419
    4NME      H   56  17.495  20.315  21.936  1.2368 -0.7523  0.4039
    4NME    CH3   57  17.464  20.407  22.119  0.2497 -0.0167 -0.2079
    4NME   HH31   58  17.374  20.386  22.175  0.3257  0.2688  0.0212
    4NME   HH32   59  17.551  20.410  22.185 -0.7104 -3.4005  1.4624
    4NME   HH33   60  17.439  20.495  22.060 -2.5608 -0.7070 -0.1845
  41.12396  41.12396  41.12396
