Protein
   42
    1ACE   HH31    1   9.036   9.303  11.068 -0.3096  0.0521  2.0356
    1ACE    CH3    2   9.095   9.211  11.062  0.0446  0.3930 -0.2515
    1ACE   HH32    3   9.100   9.161  10.965  0.0024  0.2280 -0.1705
    1ACE   HH33    4   9.049   9.135  11.125 -2.1924  1.4115 -0.5281
    1ACE      C    5   9.243   9.240  11.095  0.0000 -0.0360  0.1293
    1ACE      O    6   9.277   9.321  11.179 -0.0133 -0.9265 -0.1278
    2ALA      N    7   9.330   9.174  11.012  0.4494 -0.0173 -0.6403
    2ALA      H    8   9.289   9.123  10.935 -0.3671  0.6215 -0.6481
    2ALA     CA    9   9.479   9.177  11.003 -0.0700  0.2923  0.5173
    2ALA     HA   10   9.515   9.092  11.060  2.0639  1.5135  1.1292
    2ALA     CB   11   9.517   9.141  10.858 -0.1809 -0.3413 -0.5371
    2ALA    HB1   12   9.489   9.040  10.829  0.1987 -0.2685 -1.1791
    2ALA    HB2   13   9.469   9.216  10.795  0.7206  1.1871  0.5112
    2ALA    HB3   14   9.625   9.147  10.845 -0.2305  1.6650 -0.3164
    2ALA      C   15   9.557   9.294  11.061 -0.2728 -0.2725 -0.4067
    2ALA      O   16   9.587   9.378  10.984  0.4896 -0.2903  0.2930
    3ALA      N   17   9.591   9.310  11.190 -0.1463 -0.1201  0.0835
    3ALA      H   18   9.662   9.380  11.198  0.4947 -0.6976 -0.4248
    3ALA     CA   19   9.575   9.214  11.300 -0.4260  1.0378  0.1033
    3ALA     HA   20   9.504   9.135  11.275  2.5201 -1.3214 -1.4520
    3ALA     CB   21   9.706   9.141  11.312  0.6355  0.3548  0.3879
    3ALA    HB1   22   9.727   9.093  11.216  0.3745  0.5020  0.2526
    3ALA    HB2   23   9.787   9.210  11.333  0.8408  0.5676 -1.0195
    3ALA    HB3   24   9.693   9.070  11.394  0.2846 -0.0448  0.0077
    3ALA      C   25   9.520   9.286  11.429 -0.1632  0.2439 -0.1982
    3ALA      O   26   9.516   9.221  11.539  0.0183  0.0729  0.6364
    4ALA      N   27   9.465   9.404  11.414  0.0320 -0.0319  0.4102
    4ALA      H   28   9.453   9.444  11.323 -3.6919 -1.0285  0.3075
    4ALA     CA   29   9.417   9.481  11.534  0.3565 -0.0337 -0.0624
    4ALA     HA   30   9.453   9.440  11.628  0.1366 -0.4582 -0.1651
    4ALA     CB   31   9.455   9.631  11.508  0.1032  0.0035  0.6626
    4ALA    HB1   32   9.550   9.651  11.559 -0.1170 -0.1428  1.1401
    4ALA    HB2   33   9.457   9.662  11.404 -0.1918 -0.6244  0.4646
    4ALA    HB3   34   9.384   9.697  11.557  2.4463  2.7704  0.6447
    4ALA      C   35   9.264   9.468  11.544 -0.2383  0.2518 -0.4130
    4ALA      O   36   9.208   9.521  11.641  0.1360 -0.8625 -0.4150
    5NME      N   37   9.194   9.408  11.446 -0.3816  0.1656 -0.8079
    5NME      H   38   9.244   9.369  11.367 -0.1831  0.6630 -0.9267
    5NME    CH3   39   9.052   9.377  11.456 -0.4484 -0.0809 -0.2658
    5NME   HH31   40   9.013   9.387  11.355  0.6707  3.0702 -0.4688
    5NME   HH32   41   9.043   9.271  11.481 -2.2178 -0.7758 -3.3092
    5NME   HH33   42   9.002   9.440  11.530  0.1964  0.4767 -0.3021
  20.91516  20.91516  20.91516
