Protein
   32
    1ACE   HH31    1   6.575   6.644   9.739 -1.7639 -2.4794  1.1696
    1ACE    CH3    2   6.640   6.576   9.682 -0.3478  0.0368 -0.4398
    1ACE   HH32    3   6.705   6.520   9.750  0.9944 -0.5205 -2.1338
    1ACE   HH33    4   6.714   6.636   9.630 -0.7435  0.2304 -0.7946
    1ACE      C    5   6.575   6.479   9.588 -0.2792 -0.1102 -0.0229
    1ACE      O    6   6.463   6.446   9.611  0.1380 -0.6179 -0.4250
    2ALA      N    7   6.649   6.435   9.488  0.3333  0.2755 -0.1118
    2ALA      H    8   6.746   6.458   9.500  0.4928  0.9933 -2.3334
    2ALA     CA    9   6.616   6.365   9.364  0.1868 -0.6041 -0.4797
    2ALA     HA   10   6.708   6.366   9.306 -0.1705 -1.3686 -1.0714
    2ALA     CB   11   6.580   6.217   9.387 -0.3636  0.1091 -0.6224
    2ALA    HB1   12   6.632   6.186   9.478 -1.5058 -2.4999 -0.7902
    2ALA    HB2   13   6.472   6.204   9.401 -0.1384 -1.0842  0.1819
    2ALA    HB3   14   6.622   6.153   9.311 -2.2250 -2.2134  0.1742
    2ALA      C   15   6.523   6.453   9.270  0.3026 -0.6963 -0.3344
    2ALA      O   16   6.548   6.458   9.151 -0.6308 -0.3334 -0.9384
    3ALA      N   17   6.422   6.520   9.335  0.0800 -0.2500 -0.9411
    3ALA      H   18   6.407   6.491   9.430  2.0448 -0.4380 -0.6426
    3ALA     CA   19   6.376   6.652   9.298  0.4454 -0.3035  0.7885
    3ALA     HA   20   6.366   6.660   9.190  0.3615  1.9920  0.9254
    3ALA     CB   21   6.239   6.674   9.371  0.6941  0.4283  0.0331
    3ALA    HB1   22   6.197   6.773   9.350 -1.0654 -0.2328  0.3492
    3ALA    HB2   23   6.172   6.594   9.341  2.0148 -0.0597 -1.7831
    3ALA    HB3   24   6.255   6.667   9.479  3.1744  0.1496 -0.2876
    3ALA      C   25   6.472   6.760   9.337 -0.4926  0.4870  0.1910
    3ALA      O   26   6.587   6.732   9.362  0.0425  0.1940  0.1237
    4NME      N   27   6.425   6.887   9.352  0.7340 -0.3801  0.7397
    4NME      H   28   6.329   6.906   9.329  0.5325 -1.3274  0.7765
    4NME    CH3   29   6.490   7.003   9.403 -0.4456 -0.0945  0.2741
    4NME   HH31   30   6.469   7.034   9.506  2.2841  1.3413  0.5069
    4NME   HH32   31   6.598   6.991   9.394 -0.6264 -0.4459 -1.8909
    4NME   HH33   32   6.488   7.095   9.345  1.1335  0.3650  0.9023
  20.99041  20.99041  20.99041
