Protein
   42
    1ACE   HH31    1  11.022  12.292  14.448  0.8186 -0.1543  0.6368
    1ACE    CH3    2  10.936  12.226  14.464  0.0328  0.7416  0.2095
    1ACE   HH32    3  10.949  12.165  14.553 -0.5707 -1.7172 -1.3231
    1ACE   HH33    4  10.920  12.155  14.383  1.2789  0.2896  0.3481
    1ACE      C    5  10.805  12.284  14.478 -0.3566 -0.6047  0.0838
    1ACE      O    6  10.793  12.397  14.443  0.3463  0.0478  0.5304
    2ALA      N    7  10.714  12.203  14.528 -0.0718 -0.3877  0.9392
    2ALA      H    8  10.741  12.106  14.532  0.5030 -0.2121  1.7334
    2ALA     CA    9  10.568  12.224  14.549  1.2652 -0.0404  0.3971
    2ALA     HA   10  10.523  12.129  14.520  0.4652  0.0646  1.2586
    2ALA     CB   11  10.545  12.257  14.699  0.3849  0.3258 -0.1529
    2ALA    HB1   12  10.583  12.172  14.755 -1.2504 -0.3400  0.0066
    2ALA    HB2   13  10.611  12.340  14.726  2.0131 -0.9063 -0.1809
    2ALA    HB3   14  10.438  12.272  14.714  0.4143 -0.1474  0.6119
    2ALA      C   15  10.496  12.321  14.454  0.7896  0.4614  0.8112
    2ALA      O   16  10.416  12.275  14.372 -0.2311 -0.2605 -0.5595
    3ALA      N   17  10.532  12.449  14.457  0.1731  0.6543  0.3774
    3ALA      H   18  10.609  12.476  14.517 -0.7773  0.9950  1.4785
    3ALA     CA   19  10.498  12.550  14.359  0.5902 -0.1910 -0.1005
    3ALA     HA   20  10.390  12.540  14.348 -0.0146 -1.7434  4.5723
    3ALA     CB   21  10.535  12.693  14.403 -0.4568  0.9839 -0.6350
    3ALA    HB1   22  10.643  12.704  14.415 -0.4630  1.4191 -0.9300
    3ALA    HB2   23  10.497  12.761  14.327  0.4852  0.3727 -1.6832
    3ALA    HB3   24  10.495  12.717  14.501  1.1375  0.2393  0.2390
    3ALA      C   25  10.561  12.527  14.222 -0.0448  0.4972 -0.1987
    3ALA      O   26  10.489  12.539  14.120 -0.6083  0.5063  0.1999
    4ALA      N   27  10.687  12.492  14.213 -0.3635  0.0218  0.1008
    4ALA      H   28  10.741  12.505  14.298 -0.6809 -0.5986  0.4170
    4ALA     CA   29  10.758  12.437  14.096 -0.5320 -0.1926  0.5452
    4ALA     HA   30  10.719  12.493  14.011  0.9893 -0.0736 -0.1112
    4ALA     CB   31  10.905  12.475  14.103 -0.2371 -0.5170 -0.2343
    4ALA    HB1   32  10.947  12.455  14.202  2.5216  0.6559 -1.0645
    4ALA    HB2   33  10.959  12.422  14.025  0.6885 -2.7060  1.7523
    4ALA    HB3   34  10.908  12.583  14.088  2.6192 -0.7016 -1.5660
    4ALA      C   35  10.728  12.285  14.072  0.4673  0.1087  0.5278
    4ALA      O   36  10.810  12.217  14.006 -0.6456  0.1224 -0.5950
    5NME      N   37  10.621  12.221  14.119  0.4592 -0.3496 -0.5538
    5NME      H   38  10.546  12.276  14.160  0.7236 -0.7674  0.5484
    5NME    CH3   39  10.583  12.087  14.084  0.1105  0.6048  0.2459
    5NME   HH31   40  10.612  12.020  14.165  1.2161 -0.3588 -0.9037
    5NME   HH32   41  10.475  12.101  14.074  0.2972  1.4104 -0.9480
    5NME   HH33   42  10.623  12.054  13.988 -1.1121  0.3155 -0.1875
  20.91516  20.91516  20.91516
