Protein
   42
    1ACE   HH31    1  11.988   9.599  10.877  0.2101 -0.0435 -0.0302
    1ACE    CH3    2  12.005   9.706  10.883 -0.3426  0.0707 -0.5006
    1ACE   HH32    3  11.920   9.764  10.845 -1.0328 -0.9235 -0.5336
    1ACE   HH33    4  12.094   9.723  10.822  1.2762 -0.0539  1.7564
    1ACE      C    5  12.046   9.735  11.028 -0.5655 -0.5524 -0.3094
    1ACE      O    6  12.146   9.696  11.083 -0.2527  0.3757  0.9092
    2ALA      N    7  11.957   9.805  11.100 -0.0640  0.6619  0.4445
    2ALA      H    8  11.878   9.842  11.050  0.5000 -0.6750 -1.5302
    2ALA     CA    9  11.959   9.807  11.250 -0.6113 -0.5937  0.2238
    2ALA     HA   10  12.057   9.828  11.292 -0.6991  0.1229  0.0806
    2ALA     CB   11  11.864   9.915  11.305  0.0143 -0.4825  0.0590
    2ALA    HB1   12  11.858   9.897  11.413 -0.5099 -2.0263 -0.2059
    2ALA    HB2   13  11.894  10.017  11.280  0.8653 -0.4226  1.2234
    2ALA    HB3   14  11.765   9.893  11.267  0.7129  0.1571 -2.2394
    2ALA      C   15  11.896   9.676  11.295 -0.3347  0.3594  0.2293
    2ALA      O   16  11.812   9.615  11.225 -0.3579  0.2105 -0.8996
    3ALA      N   17  11.932   9.614  11.407 -0.0506 -0.5894  0.2310
    3ALA      H   18  11.874   9.533  11.424  1.4005 -1.7115  0.0570
    3ALA     CA   19  12.033   9.663  11.496 -0.1464 -0.0261 -0.4925
    3ALA     HA   20  12.008   9.767  11.520 -1.9195 -0.6318  0.3752
    3ALA     CB   21  12.005   9.598  11.631  0.4012  0.8557 -0.7384
    3ALA    HB1   22  12.023   9.491  11.634 -0.9888  0.6258  2.0850
    3ALA    HB2   23  12.061   9.641  11.714  0.1781 -1.3879  0.6515
    3ALA    HB3   24  11.899   9.602  11.653  0.3464  0.2952 -0.8967
    3ALA      C   25  12.180   9.674  11.456  0.4487 -0.5535 -0.5436
    3ALA      O   26  12.248   9.771  11.491 -0.8964 -0.4342 -1.3155
    4ALA      N   27  12.232   9.568  11.396  0.5929 -0.1438 -0.3277
    4ALA      H   28  12.160   9.504  11.365 -0.1935  1.3725 -1.7797
    4ALA     CA   29  12.367   9.534  11.373 -0.1174 -0.4964  0.5413
    4ALA     HA   30  12.410   9.498  11.466 -2.8683 -3.3109  0.8536
    4ALA     CB   31  12.363   9.418  11.275 -0.1463 -0.8965 -0.3600
    4ALA    HB1   32  12.318   9.442  11.179 -0.0287 -2.3041 -0.7926
    4ALA    HB2   33  12.464   9.389  11.247  0.7246  1.8537 -0.3918
    4ALA    HB3   34  12.322   9.330  11.326 -0.8744  0.0969  0.8284
    4ALA      C   35  12.450   9.651  11.317  0.3733  0.0853 -0.6595
    4ALA      O   36  12.575   9.661  11.335  0.5774  0.3764  0.4470
    5NME      N   37  12.390   9.740  11.240  0.5382  0.2775  0.1172
    5NME      H   38  12.290   9.733  11.227  0.7270 -0.7599 -0.8897
    5NME    CH3   39  12.460   9.863  11.192  0.2065 -0.6019 -0.1700
    5NME   HH31   40  12.564   9.842  11.168  0.7348  0.9395  0.6803
    5NME   HH32   41  12.420   9.888  11.093  1.2524  2.1975  0.0529
    5NME   HH33   42  12.459   9.940  11.269 -0.0430  0.2622 -1.0149
  20.91516  20.91516  20.91516
