Protein
   22
    1ACE   HH31    1   2.345   6.385   7.221  0.3633  0.0204 -0.6482
    1ACE    CH3    2   2.316   6.291   7.173 -0.1577 -0.3014  0.2637
    1ACE   HH32    3   2.211   6.262   7.170 -0.3996  0.4191 -3.4448
    1ACE   HH33    4   2.378   6.216   7.222  1.8853  1.3226  0.2944
    1ACE      C    5   2.364   6.301   7.030  0.3783 -0.0696 -0.0021
    1ACE      O    6   2.432   6.399   6.996  0.5561  0.3723 -0.3092
    2ALA      N    7   2.319   6.205   6.951  0.3747 -0.2533  0.0932
    2ALA      H    8   2.253   6.141   6.993  0.5625 -1.6362 -1.5907
    2ALA     CA    9   2.359   6.178   6.812 -0.1734  0.8731 -0.5102
    2ALA     HA   10   2.364   6.069   6.811 -1.6704  0.7613  0.0347
    2ALA     CB   11   2.249   6.209   6.715 -0.0633  0.1350  0.1830
    2ALA    HB1   12   2.238   6.317   6.705 -1.3056  0.1420  1.3254
    2ALA    HB2   13   2.290   6.181   6.618 -1.7532 -0.8910 -0.2697
    2ALA    HB3   14   2.154   6.162   6.741 -0.4202 -0.1480 -1.4868
    2ALA      C   15   2.497   6.219   6.765  0.3896 -0.0420  0.5798
    2ALA      O   16   2.581   6.132   6.747  0.3318  0.0183 -0.0625
    3NME      N   17   2.520   6.347   6.737 -0.2047 -0.2370 -0.0693
    3NME      H   18   2.457   6.411   6.783  0.1076  1.3841 -1.7656
    3NME    CH3   19   2.641   6.406   6.676 -0.3448 -0.0180  0.0254
    3NME   HH31   20   2.663   6.352   6.584  1.4966  1.9161 -0.7483
    3NME   HH32   21   2.633   6.513   6.658  0.6315  0.6103  2.7955
    3NME   HH33   22   2.727   6.391   6.742  1.0137  0.8840 -1.4885
  10.72160  10.72160  10.72160
