Protein
   42
    1ACE   HH31    1   3.741  12.543  11.551  0.6410 -0.2565  0.1043
    1ACE    CH3    2   3.793  12.526  11.457  0.2885  0.2524 -0.1836
    1ACE   HH32    3   3.825  12.623  11.419  0.7761 -0.9092 -2.9902
    1ACE   HH33    4   3.741  12.465  11.383  1.6680 -0.3247 -0.6966
    1ACE      C    5   3.924  12.457  11.494 -0.0370 -0.3668  0.4117
    1ACE      O    6   3.992  12.510  11.584  0.4382 -0.1000 -0.3101
    2ALA      N    7   3.969  12.360  11.420 -0.2229 -0.1830  0.0420
    2ALA      H    8   3.919  12.332  11.337  1.2934  1.5471 -1.5615
    2ALA     CA    9   4.094  12.290  11.442 -0.0387  0.2972 -0.5945
    2ALA     HA   10   4.128  12.325  11.540 -0.4406 -1.0384  0.0637
    2ALA     CB   11   4.064  12.139  11.443 -0.6235  0.2615 -0.0595
    2ALA    HB1   12   4.152  12.076  11.458 -1.6854 -1.4593 -0.7522
    2ALA    HB2   13   4.000  12.117  11.528  0.6118 -0.2402  0.7596
    2ALA    HB3   14   4.010  12.109  11.353 -1.7681  0.5295  0.5291
    2ALA      C   15   4.194  12.325  11.334 -0.3130  0.7424 -0.3624
    2ALA      O   16   4.160  12.343  11.218 -0.0701  0.2874  0.2524
    3ALA      N   17   4.315  12.359  11.369 -0.0950 -0.0951 -0.6560
    3ALA      H   18   4.379  12.372  11.292  0.4029  0.2218 -0.2022
    3ALA     CA   19   4.379  12.376  11.505  0.6126 -0.8055 -0.4429
    3ALA     HA   20   4.486  12.391  11.493  0.8245 -0.4626  1.5816
    3ALA     CB   21   4.331  12.507  11.577 -0.4320 -0.3922  0.2820
    3ALA    HB1   22   4.308  12.580  11.499 -1.2878  0.0798  0.9429
    3ALA    HB2   23   4.245  12.484  11.640 -1.2405 -1.2114 -1.0748
    3ALA    HB3   24   4.414  12.546  11.635 -0.5119  0.2366 -0.0188
    3ALA      C   25   4.378  12.255  11.602 -0.5427 -0.1305  0.0987
    3ALA      O   26   4.356  12.140  11.565 -0.8593 -0.3480 -0.2532
    4ALA      N   27   4.423  12.280  11.730 -0.7811  0.0305 -0.5306
    4ALA      H   28   4.453  12.372  11.762  1.4874 -0.8348  0.0430
    4ALA     CA   29   4.427  12.181  11.836 -0.3621 -0.4963  0.0045
    4ALA     HA   30   4.488  12.098  11.801 -0.2611 -0.5301  0.2588
    4ALA     CB   31   4.506  12.246  11.953 -0.0154  0.0427  0.7738
    4ALA    HB1   32   4.602  12.285  11.919  0.2697 -0.6626  0.7318
    4ALA    HB2   33   4.447  12.332  11.985  1.3739  2.4931 -2.6148
    4ALA    HB3   34   4.518  12.162  12.022  0.0492 -0.6995 -0.1071
    4ALA      C   35   4.288  12.121  11.884  0.5018 -0.0024 -0.3505
    4ALA      O   36   4.280  12.058  11.992  0.5895 -0.5325 -0.2162
    5NME      N   37   4.178  12.120  11.806 -0.2728  0.0789  0.2989
    5NME      H   38   4.193  12.155  11.712 -0.7968 -0.7517 -0.1112
    5NME    CH3   39   4.047  12.066  11.822 -0.0017  0.6014 -0.0624
    5NME   HH31   40   4.041  11.973  11.765  2.2374 -0.0746  0.6796
    5NME   HH32   41   4.029  12.029  11.923 -0.7286 -0.2000 -0.4711
    5NME   HH33   42   3.964  12.130  11.793 -2.5128 -0.5701  3.7830
  20.91516  20.91516  20.91516
