Protein
   32
    1ACE   HH31    1  10.559  12.334  15.786  0.2415  0.7583 -1.9805
    1ACE    CH3    2  10.517  12.244  15.741 -0.6543 -0.0948  0.4271
    1ACE   HH32    3  10.440  12.285  15.676  1.4067  1.3472 -1.2580
    1ACE   HH33    4  10.484  12.177  15.820  1.4374 -0.5489  0.9722
    1ACE      C    5  10.623  12.190  15.649 -0.6245 -0.6000 -0.3741
    1ACE      O    6  10.595  12.153  15.538 -0.7957  0.5092 -0.2485
    2ALA      N    7  10.745  12.182  15.701 -0.4279  0.0380 -0.0476
    2ALA      H    8  10.757  12.235  15.786  0.0636 -0.2144  0.0419
    2ALA     CA    9  10.859  12.121  15.631 -0.9698  0.2747 -0.0836
    2ALA     HA   10  10.821  12.040  15.568 -1.5645  1.1249 -0.8458
    2ALA     CB   11  10.931  12.227  15.542  0.3335  0.2678 -0.2240
    2ALA    HB1   12  10.860  12.272  15.474  1.8664  1.2887 -1.2010
    2ALA    HB2   13  10.979  12.306  15.600  0.7664 -0.3671  0.3017
    2ALA    HB3   14  11.005  12.177  15.480  1.5491  0.4872  1.0005
    2ALA      C   15  10.953  12.065  15.736 -0.8055  0.8674  0.3380
    2ALA      O   16  10.992  12.128  15.834  0.4047  0.2282  0.1467
    3ALA      N   17  11.004  11.941  15.718  0.2161  0.3452 -0.2299
    3ALA      H   18  10.970  11.898  15.633  0.3930  2.0167 -1.1953
    3ALA     CA   19  11.067  11.857  15.816 -0.7102  0.3904 -0.2398
    3ALA     HA   20  11.080  11.758  15.773 -0.2813  1.0032 -1.5825
    3ALA     CB   21  11.203  11.913  15.853 -0.1734 -0.5344  0.3968
    3ALA    HB1   22  11.272  11.922  15.769  1.7859 -0.3945  1.9459
    3ALA    HB2   23  11.205  12.014  15.895  0.6782  1.8956 -4.7281
    3ALA    HB3   24  11.259  11.850  15.922 -0.3350  0.0742  1.0964
    3ALA      C   25  10.975  11.839  15.939 -0.1201  0.4412 -0.0846
    3ALA      O   26  10.853  11.817  15.922  0.4267 -0.2466 -0.2044
    4NME      N   27  11.028  11.845  16.064 -0.2795  0.4449 -0.2411
    4NME      H   28  11.126  11.866  16.072  0.0864 -1.1672 -0.4045
    4NME    CH3   29  10.943  11.849  16.186  0.1181 -0.6517  0.1945
    4NME   HH31   30  10.875  11.934  16.183  1.2396  0.2765 -1.6376
    4NME   HH32   31  10.883  11.758  16.190  2.4586 -2.3439 -0.8105
    4NME   HH33   32  11.010  11.842  16.272 -0.4501  2.5709  1.0418
  20.99041  20.99041  20.99041
