Protein
   32
    1ACE   HH31    1   7.961  11.692   9.197 -0.1322 -0.3070 -0.3403
    1ACE    CH3    2   8.038  11.766   9.173 -0.2755  0.0072  0.1611
    1ACE   HH32    3   7.993  11.864   9.191 -1.7505 -0.5501 -0.3114
    1ACE   HH33    4   8.059  11.768   9.066 -0.0402  1.8752  0.2046
    1ACE      C    5   8.160  11.733   9.254  0.2239 -0.4829 -0.5768
    1ACE      O    6   8.270  11.723   9.192 -0.3183  0.3397 -0.0136
    2ALA      N    7   8.134  11.711   9.381  0.0761  0.3585  0.1810
    2ALA      H    8   8.053  11.760   9.416 -0.9772  1.7672 -3.7564
    2ALA     CA    9   8.224  11.648   9.479 -0.2925 -0.1713  1.0090
    2ALA     HA   10   8.303  11.611   9.413 -0.7903  3.1000 -1.7159
    2ALA     CB   11   8.289  11.756   9.565 -0.1075  0.6679 -0.7145
    2ALA    HB1   12   8.354  11.828   9.516  2.3179 -0.4166  0.6919
    2ALA    HB2   13   8.223  11.812   9.631  1.1701 -0.5841  1.7889
    2ALA    HB3   14   8.359  11.701   9.628  0.2709  2.8404  0.8438
    2ALA      C   15   8.152  11.530   9.559  0.8330 -0.8927 -0.0792
    2ALA      O   16   8.045  11.546   9.622 -0.6837 -0.5706 -0.0363
    3ALA      N   17   8.213  11.415   9.556  0.2930  0.8850 -0.1899
    3ALA      H   18   8.289  11.403   9.491  1.3523  1.1998  0.9544
    3ALA     CA   19   8.153  11.289   9.612  0.0992  0.2359 -0.2897
    3ALA     HA   20   8.047  11.286   9.588  0.2373 -1.6317 -0.8577
    3ALA     CB   21   8.218  11.168   9.537  0.3931 -0.1836 -0.1454
    3ALA    HB1   22   8.189  11.166   9.432 -2.2699  3.2263  0.3306
    3ALA    HB2   23   8.326  11.175   9.546  0.3641  0.5727 -0.3023
    3ALA    HB3   24   8.181  11.075   9.580 -1.8358  0.9743  0.5759
    3ALA      C   25   8.166  11.279   9.769  0.3481  0.1518 -0.3279
    3ALA      O   26   8.214  11.185   9.831  0.4095  0.0239  0.3694
    4NME      N   27   8.125  11.381   9.842  0.0081 -1.0316 -0.3870
    4NME      H   28   8.106  11.469   9.795  0.4894 -0.8924 -0.3408
    4NME    CH3   29   8.107  11.380   9.991 -0.2576  0.9244 -0.2463
    4NME   HH31   30   8.198  11.346  10.040  0.3411  0.5985 -1.5526
    4NME   HH32   31   8.080  11.475  10.037  0.6919  0.0312  2.3657
    4NME   HH33   32   8.027  11.309  10.015 -0.2891  0.7383 -0.8793
  20.99041  20.99041  20.99041
