Title
  129
    1AIB    CAY    1  19.601  20.614  19.581 -0.3060 -0.0084  0.0357
    1AIB    HY1    2  19.505  20.570  19.613  1.1482 -1.2136  3.2005
    1AIB    HY2    3  19.648  20.532  19.523 -0.8564 -2.4875  2.8377
    1AIB    HY3    4  19.599  20.712  19.530  1.2976 -0.4065 -0.8527
    1AIB     CY    5  19.677  20.635  19.709  0.5065 -0.1256  0.3735
    1AIB     OY    6  19.771  20.565  19.729  0.4252  0.4686 -0.9671
    1AIB      N    7  19.637  20.745  19.772  0.3537  0.2565  0.5776
    1AIB     HN    8  19.557  20.786  19.728  0.7197  0.7903  0.4188
    1AIB     CA    9  19.705  20.825  19.874  0.2873  0.1253  0.8230
    1AIB    CB1   10  19.604  20.904  19.950 -0.2104  0.1593 -0.6404
    1AIB   HB11   11  19.565  20.982  19.881 -1.3264 -0.4510 -0.7402
    1AIB   HB12   12  19.655  20.938  20.042  1.9250 -1.6775 -1.0761
    1AIB   HB13   13  19.516  20.838  19.967 -0.0435 -0.2854 -1.4747
    1AIB    CB2   14  19.811  20.913  19.795 -0.5421  0.5156 -0.3941
    1AIB   HB21   15  19.868  20.840  19.735 -0.8746  1.6679 -2.1586
    1AIB   HB22   16  19.871  20.974  19.867  0.5542  0.2274 -1.0468
    1AIB   HB23   17  19.754  20.980  19.727  1.0674  1.1515 -1.1469
    1AIB      C   18  19.782  20.732  19.976  0.5101  0.3369  0.8790
    1AIB      O   19  19.904  20.738  19.981 -0.4356 -0.2899  0.6500
    2AIB      N   20  19.708  20.635  20.042 -0.3147 -0.0513  0.8917
    2AIB     HN   21  19.618  20.613  20.004  0.0575  0.1690 -0.1619
    2AIB     CA   22  19.746  20.552  20.148  0.3528  0.6815 -0.7619
    2AIB    CB1   23  19.625  20.462  20.183  0.2805  0.2969 -0.3195
    2AIB   HB11   24  19.644  20.411  20.280 -2.6041 -2.7788 -1.2380
    2AIB   HB12   25  19.611  20.382  20.108  2.2769 -0.1091 -0.3204
    2AIB   HB13   26  19.537  20.528  20.198  1.8970  2.4538  0.3218
    2AIB    CB2   27  19.768  20.633  20.283 -0.3257 -0.2278  0.6970
    2AIB   HB21   28  19.847  20.704  20.250 -1.1770  0.4074 -0.0148
    2AIB   HB22   29  19.800  20.561  20.362 -1.0588 -0.0486  1.1785
    2AIB   HB23   30  19.671  20.679  20.310 -0.3601 -0.2976  0.7021
    2AIB      C   31  19.866  20.462  20.113 -0.2870 -0.7076 -0.0139
    2AIB      O   32  19.963  20.455  20.185  0.0507  0.5728  0.1507
    3AIB      N   33  19.858  20.396  19.995 -0.3035 -0.2538  0.8638
    3AIB     HN   34  19.777  20.414  19.940 -0.8858 -1.2599  1.3787
    3AIB     CA   35  19.960  20.314  19.929 -0.4432 -0.4611 -0.1064
    3AIB    CB1   36  19.908  20.270  19.788 -0.0193  0.5260 -0.7844
    3AIB   HB11   37  19.906  20.353  19.714 -0.9023 -0.1797 -1.5733
    3AIB   HB12   38  19.808  20.225  19.807  0.4470 -0.0955  0.2712
    3AIB   HB13   39  19.976  20.192  19.748 -1.0022 -0.0020 -1.4612
    3AIB    CB2   40  19.991  20.177  20.001  0.1149  0.0088  0.1704
    3AIB   HB21   41  19.903  20.111  20.019 -1.2778  1.9825  0.9828
    3AIB   HB22   42  20.046  20.194  20.096  0.5448  1.5559 -0.3176
    3AIB   HB23   43  20.070  20.130  19.939 -0.1147  0.0312 -0.1454
    3AIB      C   44  20.087  20.401  19.904 -0.9442 -0.2204  0.1845
    3AIB      O   45  20.197  20.379  19.956  0.0404  0.0699  0.6496
    4AIB      N   46  20.079  20.511  19.825 -0.1533  1.1154 -1.0282
    4AIB     HN   47  19.986  20.530  19.794 -0.6803  1.6282  0.7745
    4AIB     CA   48  20.176  20.606  19.781  0.2992 -0.8364  0.4480
    4AIB    CB1   49  20.122  20.733  19.706  0.2261 -0.4134 -0.4612
    4AIB   HB11   50  20.193  20.816  19.689 -1.6658  1.3653 -0.0863
    4AIB   HB12   51  20.060  20.797  19.772  2.7117  2.5387 -0.8049
    4AIB   HB13   52  20.066  20.704  19.614 -1.3344  1.6311 -0.2027
    4AIB    CB2   53  20.281  20.525  19.683  0.1521  1.0370  0.1014
    4AIB   HB21   54  20.226  20.482  19.597 -2.1990 -1.8966  2.8424
    4AIB   HB22   55  20.323  20.449  19.752 -1.4979 -1.8256 -1.8428
    4AIB   HB23   56  20.364  20.594  19.656  1.9203 -1.2832 -0.7900
    4AIB      C   57  20.257  20.661  19.902  0.2591  0.3381 -0.1983
    4AIB      O   58  20.381  20.657  19.907  0.1960  0.1502  0.8786
    5AIB      N   59  20.186  20.696  20.010 -0.4228  0.6470  0.8427
    5AIB     HN   60  20.087  20.694  20.002 -0.3768 -0.3845  0.4902
    5AIB     CA   61  20.237  20.769  20.124  0.2681  0.4444  0.5778
    5AIB    CB1   62  20.124  20.787  20.233 -0.1371 -0.2557  0.1597
    5AIB   HB11   63  20.159  20.860  20.309 -0.1458 -1.3765  1.2813
    5AIB   HB12   64  20.102  20.698  20.296  2.9003 -0.3506  1.2826
    5AIB   HB13   65  20.030  20.824  20.188 -1.2930 -1.1078  1.7849
    5AIB    CB2   66  20.281  20.911  20.087  0.7032 -0.4291  0.3708
    5AIB   HB21   67  20.300  20.969  20.180  0.6844 -2.0478  1.4580
    5AIB   HB22   68  20.196  20.960  20.035  1.4218  0.9254  0.4506
    5AIB   HB23   69  20.365  20.903  20.015 -0.8454  1.5011 -1.7560
    5AIB      C   70  20.340  20.690  20.206 -0.2303  0.1273 -0.2126
    5AIB      O   71  20.440  20.748  20.249 -0.1074 -0.3095  0.0529
    6AIB      N   72  20.322  20.557  20.215  0.0293 -1.3170  0.1485
    6AIB     HN   73  20.246  20.510  20.170 -0.7599  1.1343 -1.2259
    6AIB     CA   74  20.399  20.470  20.297  0.4993  0.1137 -0.6552
    6AIB    CB1   75  20.318  20.341  20.323 -0.5237  0.2858 -0.0888
    6AIB   HB11   76  20.216  20.352  20.366 -1.4176 -1.0566 -1.7922
    6AIB   HB12   77  20.380  20.279  20.391  0.3015  2.8925  1.7550
    6AIB   HB13   78  20.301  20.280  20.232 -1.0307  1.9778 -1.1885
    6AIB    CB2   79  20.436  20.526  20.438  0.2005 -0.7393  0.0284
    6AIB   HB21   80  20.332  20.531  20.477 -0.4995  0.7240 -1.8796
    6AIB   HB22   81  20.491  20.622  20.447 -1.3120  0.0477  1.1964
    6AIB   HB23   82  20.490  20.455  20.504 -1.0551  0.0234  1.9594
    6AIB      C   83  20.527  20.415  20.221 -0.1934 -0.4897  0.0151
    6AIB      O   84  20.637  20.391  20.276  0.1297  0.1717  0.0227
    7AIB      N   85  20.521  20.403  20.085 -0.1533 -0.6745 -0.7801
    7AIB     HN   86  20.438  20.441  20.045 -1.0805 -1.1748  0.5916
    7AIB     CA   87  20.628  20.353  20.002  0.8495  0.1290 -0.3529
    7AIB    CB1   88  20.557  20.332  19.865  0.5941 -0.1137  0.2036
    7AIB   HB11   89  20.630  20.294  19.791 -1.3543 -0.0944 -1.8701
    7AIB   HB12   90  20.516  20.428  19.826  3.0974  1.3766  1.0520
    7AIB   HB13   91  20.482  20.251  19.878  0.5671 -0.2786 -0.8565
    7AIB    CB2   92  20.680  20.219  20.038  0.3380  1.1288  0.3092
    7AIB   HB21   93  20.762  20.172  19.980 -0.0636 -1.9902  2.0682
    7AIB   HB22   94  20.605  20.138  20.024  0.9565  0.2797  1.6770
    7AIB   HB23   95  20.699  20.208  20.147  1.1993 -3.0155 -0.1101
    7AIB      C   96  20.740  20.458  19.990  0.4322 -0.7203 -0.3013
    7AIB      O   97  20.861  20.421  19.972 -0.0494 -0.2974 -0.4452
    8AIB      N   98  20.700  20.588  20.006 -0.5210  0.2173 -0.4425
    8AIB     HN   99  20.602  20.603  20.022 -0.9452  0.9843 -3.1389
    8AIB     CA  100  20.789  20.701  19.999  0.1114  0.1163 -0.5378
    8AIB    CB1  101  20.689  20.822  19.988  0.5229 -0.0191  0.1064
    8AIB   HB11  102  20.747  20.916  19.977  1.2713 -0.3993  0.6711
    8AIB   HB12  103  20.624  20.821  20.078 -2.4558  0.5774 -1.8852
    8AIB   HB13  104  20.624  20.809  19.899 -0.9644 -1.4401  1.3362
    8AIB    CB2  105  20.874  20.698  19.867  0.8427 -0.0777  0.3972
    8AIB   HB21  106  20.928  20.795  19.862 -0.6837  0.7835 -0.2374
    8AIB   HB22  107  20.799  20.703  19.785  0.5841 -0.5993  0.6039
    8AIB   HB23  108  20.945  20.613  19.873  1.2986  0.2539 -0.1316
    8AIB      C  109  20.889  20.713  20.116 -0.6694  1.4037  0.1101
    8AIB      O  110  21.010  20.743  20.100  0.0474 -0.4423 -0.0316
    9AIB      N  111  20.843  20.659  20.231 -1.1016 -0.0829  0.0322
    9AIB     HN  112  20.749  20.625  20.225 -0.0675 -2.9599 -1.6740
    9AIB     CA  113  20.916  20.638  20.355  0.5046 -0.2076  0.1765
    9AIB    CB1  114  20.814  20.652  20.470 -1.0821  0.0975 -0.4443
    9AIB   HB11  115  20.744  20.566  20.460  0.0128 -0.8634 -0.1522
    9AIB   HB12  116  20.761  20.749  20.465  0.3271  0.9146 -0.3248
    9AIB   HB13  117  20.876  20.645  20.561  1.2838  0.7511 -1.9197
    9AIB    CB2  118  21.020  20.750  20.381  0.4246 -0.2942 -0.8561
    9AIB   HB21  119  21.104  20.756  20.309  0.5032  1.2022 -0.6638
    9AIB   HB22  120  21.051  20.739  20.487 -1.6963 -1.5469 -0.3181
    9AIB   HB23  121  20.971  20.848  20.365  1.2427  0.4869  1.0327
    9AIB      C  122  20.974  20.498  20.365 -0.4306 -0.1102  0.7116
    9AIB      O  123  21.027  20.461  20.467 -0.0820 -0.0970 -0.2121
    9AIB     NT  124  20.966  20.411  20.262 -0.4828  0.4347 -0.1800
    9AIB    HNT  125  20.922  20.441  20.178  0.5236  1.7218 -0.2581
    9AIB    CAT  126  21.001  20.277  20.276 -0.9407 -0.3801  0.5339
    9AIB    HT1  127  21.009  20.234  20.174 -0.5361 -0.3807  0.5650
    9AIB    HT2  128  20.932  20.212  20.333 -3.1926  0.5936 -0.9834
    9AIB    HT3  129  21.107  20.270  20.310 -0.8981  0.7894  0.7328
  42.09246  42.09246  42.09246
