Protein
   32
    1ACE   HH31    1  10.192  12.905   5.162  0.2527  0.1683  0.2889
    1ACE    CH3    2  10.190  13.003   5.208  0.6244  0.8064 -1.0228
    1ACE   HH32    3  10.105  13.025   5.272  2.5227  2.3407  1.1549
    1ACE   HH33    4  10.189  13.089   5.140  2.7367  1.6558 -0.1274
    1ACE      C    5  10.307  13.016   5.303 -0.1743  0.0101  0.1375
    1ACE      O    6  10.311  12.960   5.409  0.3117  0.3467 -0.6923
    2ALA      N    7  10.390  13.113   5.265  0.3167  0.3352 -0.2252
    2ALA      H    8  10.369  13.171   5.185 -2.1865 -0.4310 -0.1862
    2ALA     CA    9  10.503  13.153   5.347  0.1249 -0.3459  0.2600
    2ALA     HA   10  10.481  13.146   5.454 -1.5663 -0.2442 -0.0524
    2ALA     CB   11  10.620  13.052   5.330  0.0936 -0.2710  0.6777
    2ALA    HB1   12  10.664  13.068   5.232  0.2043  0.6071  0.8612
    2ALA    HB2   13  10.702  13.075   5.398  2.6376 -1.2039 -1.8721
    2ALA    HB3   14  10.580  12.953   5.349 -3.6700  1.0362  0.2468
    2ALA      C   15  10.535  13.294   5.317  0.1574  0.4657 -0.1608
    2ALA      O   16  10.490  13.358   5.223  0.0257  0.2988  0.2745
    3ALA      N   17  10.626  13.355   5.398  0.3773 -0.2457  0.2199
    3ALA      H   18  10.678  13.308   5.471  2.0727 -0.4935 -1.0922
    3ALA     CA   19  10.632  13.506   5.403 -0.7538  0.1945  0.5236
    3ALA     HA   20  10.675  13.525   5.501  0.7345  3.1939 -0.5658
    3ALA     CB   21  10.723  13.549   5.283  0.1307 -0.0285  0.2960
    3ALA    HB1   22  10.809  13.483   5.275 -1.8451 -2.5095 -2.2309
    3ALA    HB2   23  10.667  13.534   5.191 -2.9631  1.6595  1.7501
    3ALA    HB3   24  10.748  13.655   5.279 -2.1601  0.6187  1.5700
    3ALA      C   25  10.497  13.576   5.401  0.4805  0.2298 -0.0162
    3ALA      O   26  10.403  13.531   5.467 -0.1081 -0.0414  0.4313
    4NME      N   27  10.475  13.688   5.334 -0.3470  0.0172 -0.5739
    4NME      H   28  10.561  13.724   5.295  0.5492 -0.7081  0.6659
    4NME    CH3   29  10.353  13.768   5.313  0.0165 -0.2092  0.0070
    4NME   HH31   30  10.375  13.838   5.232  1.1498 -2.1981 -1.4786
    4NME   HH32   31  10.268  13.707   5.281 -1.2350  1.2488  0.4045
    4NME   HH33   32  10.316  13.820   5.401 -1.7633  0.3500 -1.0230
  20.99041  20.99041  20.99041
