Protein
   32
    1ACE   HH31    1   5.317  10.044  12.950  0.7228 -0.0992 -0.0813
    1ACE    CH3    2   5.320   9.975  12.866  0.2979  0.0924 -0.2604
    1ACE   HH32    3   5.241   9.992  12.793  2.2232 -0.6248 -2.6341
    1ACE   HH33    4   5.299   9.873  12.900  0.5125 -0.3551 -1.4003
    1ACE      C    5   5.442   9.980  12.780  0.7935  1.3224 -0.0398
    1ACE      O    6   5.518  10.075  12.795  0.6847 -0.1150  0.4945
    2ALA      N    7   5.455   9.881  12.683  0.1469  0.1434  0.0891
    2ALA      H    8   5.383   9.812  12.668  0.3315 -0.5547  2.0311
    2ALA     CA    9   5.581   9.858  12.617 -0.1943 -0.1899  0.1842
    2ALA     HA   10   5.648   9.941  12.639  0.3769 -0.2734 -1.1243
    2ALA     CB   11   5.637   9.741  12.682  0.2146  0.1568  0.6380
    2ALA    HB1   12   5.572   9.654  12.692  1.4709 -0.8131  0.5509
    2ALA    HB2   13   5.735   9.717  12.640 -0.0043  0.5642 -0.1378
    2ALA    HB3   14   5.655   9.764  12.787 -1.4749  1.8271  0.6169
    2ALA      C   15   5.568   9.846  12.468  0.0549 -0.3681  0.3236
    2ALA      O   16   5.464   9.800  12.421  0.3583 -0.3052 -0.3116
    3ALA      N   17   5.673   9.886  12.393  0.1165  0.1018 -0.2354
    3ALA      H   18   5.754   9.916  12.446 -0.4463  0.3201  0.5313
    3ALA     CA   19   5.681   9.883  12.250  0.1621  0.4623  0.2036
    3ALA     HA   20   5.609   9.954  12.210  1.0308 -0.3354 -3.0841
    3ALA     CB   21   5.810   9.952  12.207  0.3678 -0.0221  0.3553
    3ALA    HB1   22   5.805  10.057  12.234  1.1872  0.2849 -0.6285
    3ALA    HB2   23   5.895   9.901  12.253 -1.0712 -0.9806  2.0732
    3ALA    HB3   24   5.816   9.952  12.098  1.6317  2.8482  0.3340
    3ALA      C   25   5.668   9.744  12.188 -0.4919  0.0278 -0.3407
    3ALA      O   26   5.752   9.696  12.113 -0.5997 -0.5161 -0.6807
    4NME      N   27   5.562   9.663  12.217  0.0537 -0.5764  0.2514
    4NME      H   28   5.491   9.705  12.276  0.5096  0.2953  0.1987
    4NME    CH3   29   5.556   9.519  12.174  0.0380 -0.2390  0.0702
    4NME   HH31   30   5.649   9.463  12.167 -0.8668 -1.8339  0.2247
    4NME   HH32   31   5.499   9.461  12.248  0.1219 -3.2349 -1.9982
    4NME   HH33   32   5.498   9.499  12.084 -0.4928  0.3408  0.2722
  20.99041  20.99041  20.99041
