Protein
   42
    1ACE   HH31    1   5.871   6.812   6.980 -0.7188  2.0244 -0.9912
    1ACE    CH3    2   5.797   6.831   7.058 -0.4984 -0.0918 -0.2043
    1ACE   HH32    3   5.832   6.815   7.160  0.4544  0.4183 -0.4335
    1ACE   HH33    4   5.718   6.756   7.053 -1.6355  0.9766  1.1228
    1ACE      C    5   5.730   6.961   7.046 -0.4586 -0.0060  0.1495
    1ACE      O    6   5.795   7.050   6.990  0.1650  0.0291  0.0292
    2ALA      N    7   5.615   6.979   7.116  0.3082  0.0409 -0.2105
    2ALA      H    8   5.563   6.907   7.163  0.0098  0.5693  0.2820
    2ALA     CA    9   5.537   7.096   7.096  0.5315 -0.2071 -0.4509
    2ALA     HA   10   5.581   7.163   7.022 -1.0721  0.0084 -1.2513
    2ALA     CB   11   5.411   7.055   7.023 -0.0909  0.0020  0.1056
    2ALA    HB1   12   5.353   7.139   6.984  0.1183  0.3006  0.4279
    2ALA    HB2   13   5.444   6.990   6.942  0.2377 -1.8421  1.6671
    2ALA    HB3   14   5.343   6.982   7.066  2.4791 -2.5187  0.1001
    2ALA      C   15   5.524   7.176   7.228  0.0754  0.7993  0.1694
    2ALA      O   16   5.435   7.146   7.310 -0.5330  0.0393  0.0885
    3ALA      N   17   5.593   7.290   7.244  0.2711 -0.2792 -0.6448
    3ALA      H   18   5.554   7.335   7.325 -2.2662 -2.3194 -0.6285
    3ALA     CA   19   5.715   7.332   7.171  0.4610 -0.4028  0.4195
    3ALA     HA   20   5.723   7.288   7.071 -0.9124  0.7669 -0.2525
    3ALA     CB   21   5.697   7.479   7.140  1.0360 -0.2760  0.4175
    3ALA    HB1   22   5.778   7.522   7.082  0.7456  0.9736  0.9129
    3ALA    HB2   23   5.601   7.501   7.093  0.4831 -1.0793  1.1353
    3ALA    HB3   24   5.702   7.530   7.235  0.6634  1.0421 -0.2390
    3ALA      C   25   5.845   7.310   7.253  0.1743  1.6679 -0.4489
    3ALA      O   26   5.835   7.253   7.360 -0.2958  0.0284 -0.3108
    4ALA      N   27   5.961   7.348   7.206  0.1754 -0.3712 -0.0083
    4ALA      H   28   5.956   7.393   7.116 -3.0194  0.8884  0.6463
    4ALA     CA   29   6.089   7.359   7.294  0.0372  0.9654  0.2314
    4ALA     HA   30   6.103   7.261   7.340 -1.4131  1.4352  1.8065
    4ALA     CB   31   6.212   7.379   7.201  0.2990 -0.4220  0.1960
    4ALA    HB1   32   6.298   7.397   7.265  0.3554  2.1438 -0.5154
    4ALA    HB2   33   6.234   7.292   7.139  3.5740  0.1722  0.3378
    4ALA    HB3   34   6.197   7.470   7.143 -0.8404 -0.2690  0.7222
    4ALA      C   35   6.073   7.467   7.406 -0.2954  0.5065  1.1199
    4ALA      O   36   6.148   7.566   7.416  0.3172 -0.1194 -0.3229
    5NME      N   37   5.978   7.449   7.495 -0.1997  0.7977  0.2828
    5NME      H   38   5.921   7.365   7.489  0.8583  0.0874  0.0451
    5NME    CH3   39   5.948   7.557   7.589  0.3731  0.7908  0.0702
    5NME   HH31   40   5.906   7.512   7.679  2.2863  0.4279  0.8568
    5NME   HH32   41   6.038   7.611   7.619  0.5331 -0.7105  2.5795
    5NME   HH33   42   5.875   7.622   7.541 -0.7345 -1.1534 -1.0004
  20.91516  20.91516  20.91516
