Protein
   42
    1ACE   HH31    1  15.805   7.423  10.864  0.2269 -0.4032 -0.3216
    1ACE    CH3    2  15.780   7.344  10.792  0.1168 -0.1638 -0.5532
    1ACE   HH32    3  15.859   7.313  10.724  1.9051  2.0826  0.3760
    1ACE   HH33    4  15.702   7.386  10.729 -0.8093  1.2226  1.3850
    1ACE      C    5  15.724   7.218  10.860  0.1823 -0.1392 -0.5817
    1ACE      O    6  15.761   7.104  10.828 -0.1829 -0.0757 -0.1709
    2ALA      N    7  15.619   7.239  10.940  0.7883  0.0974 -0.6076
    2ALA      H    8  15.594   7.337  10.948 -2.1065 -0.6908  1.3128
    2ALA     CA    9  15.537   7.131  10.999  0.7730  0.6836  0.7764
    2ALA     HA   10  15.607   7.074  11.060  2.2464  1.9692  0.3598
    2ALA     CB   11  15.420   7.183  11.079  0.1240  0.9038  1.1108
    2ALA    HB1   12  15.351   7.226  11.007  1.2557  2.1385  0.7157
    2ALA    HB2   13  15.375   7.099  11.130  1.9221 -0.9384 -0.1600
    2ALA    HB3   14  15.446   7.260  11.152 -0.9851  2.5389 -0.1518
    2ALA      C   15  15.483   7.028  10.894 -0.0592  0.3251 -0.3841
    2ALA      O   16  15.395   7.055  10.819 -0.1676  0.2316  0.8121
    3ALA      N   17  15.549   6.912  10.881  0.3922  1.1124  0.3183
    3ALA      H   18  15.508   6.854  10.809 -0.2586  2.0220 -0.0520
    3ALA     CA   19  15.627   6.833  10.981 -0.0756 -0.0350 -0.6417
    3ALA     HA   20  15.593   6.867  11.079 -0.1640  2.0955 -1.3648
    3ALA     CB   21  15.584   6.685  10.949 -0.2274  0.4212 -0.0016
    3ALA    HB1   22  15.649   6.617  11.004  1.2430 -0.5773 -2.7929
    3ALA    HB2   23  15.482   6.675  10.987  0.3245 -1.4023  1.1179
    3ALA    HB3   24  15.580   6.663  10.842 -0.5534 -0.3092  0.1503
    3ALA      C   25  15.783   6.848  10.976 -0.1569  0.2082  0.5882
    3ALA      O   26  15.846   6.888  11.071  0.0232 -0.1785  0.2650
    4ALA      N   27  15.841   6.807  10.862  0.2017  0.0009  0.3132
    4ALA      H   28  15.779   6.772  10.790 -0.1246 -1.0749  1.0923
    4ALA     CA   29  15.982   6.767  10.846  0.1283 -0.1282  0.7050
    4ALA     HA   30  16.006   6.683  10.912 -0.6492 -2.4245 -1.7848
    4ALA     CB   31  15.998   6.707  10.708  0.1844 -0.6170 -0.3286
    4ALA    HB1   32  16.082   6.640  10.727 -0.0039 -0.5982  0.6088
    4ALA    HB2   33  15.911   6.645  10.690  0.8734 -1.9908  0.9733
    4ALA    HB3   34  16.028   6.780  10.632 -0.8474 -1.6254 -1.7528
    4ALA      C   35  16.091   6.877  10.867  0.1998  0.2464  0.3851
    4ALA      O   36  16.205   6.849  10.905 -0.4233  0.0702 -0.0959
    5NME      N   37  16.047   7.005  10.844  0.0331 -0.4068 -0.2356
    5NME      H   38  15.949   7.013  10.823 -0.2619 -1.1587  0.7268
    5NME    CH3   39  16.128   7.125  10.864  0.7461 -0.3822 -0.4487
    5NME   HH31   40  16.234   7.110  10.845  0.6213  0.6426 -2.1745
    5NME   HH32   41  16.092   7.196  10.789 -0.8651 -1.2711 -0.5599
    5NME   HH33   42  16.114   7.158  10.967  2.1112 -0.1677 -0.3073
  20.91516  20.91516  20.91516
