Protein
   42
    1ACE   HH31    1   8.919   9.199   9.031  0.1633  0.0105 -0.6940
    1ACE    CH3    2   8.883   9.102   9.063 -0.1474  0.3869  0.0927
    1ACE   HH32    3   8.903   9.084   9.169  1.8778  2.4374  0.1359
    1ACE   HH33    4   8.923   9.012   9.017  0.0916 -0.4398  1.8102
    1ACE      C    5   8.738   9.094   9.031 -0.2841  0.9674 -0.5765
    1ACE      O    6   8.685   9.191   8.992  0.1128  0.3681  0.9446
    2ALA      N    7   8.676   8.978   9.042 -0.8002 -0.1917  1.1012
    2ALA      H    8   8.729   8.907   9.091  0.3766  0.0050  0.1799
    2ALA     CA    9   8.535   8.958   9.021 -0.0569  0.2781 -0.5236
    2ALA     HA   10   8.518   9.002   8.923 -1.6273 -2.6594 -1.6806
    2ALA     CB   11   8.508   8.806   8.999 -0.1644  0.1085 -0.4530
    2ALA    HB1   12   8.580   8.758   8.933 -0.8623 -0.4539 -0.8146
    2ALA    HB2   13   8.509   8.770   9.102 -0.8665  1.1964 -0.0487
    2ALA    HB3   14   8.408   8.791   8.958 -0.2807 -2.3081  0.5413
    2ALA      C   15   8.441   9.016   9.130  0.5915  0.0514  0.3051
    2ALA      O   16   8.442   8.968   9.243 -0.4026 -0.4483  0.3647
    3ALA      N   17   8.357   9.120   9.100  0.7179  0.4315 -0.3199
    3ALA      H   18   8.292   9.145   9.173  2.4030 -1.9221  2.2008
    3ALA     CA   19   8.349   9.208   8.991 -1.1333  0.1315  0.7601
    3ALA     HA   20   8.425   9.192   8.915 -1.0571 -1.4564  1.1419
    3ALA     CB   21   8.214   9.184   8.921 -0.7303 -0.0368 -0.1552
    3ALA    HB1   22   8.194   9.251   8.837 -1.7347  0.9211  0.8013
    3ALA    HB2   23   8.203   9.079   8.896  0.4069 -0.3016  0.4299
    3ALA    HB3   24   8.135   9.204   8.993 -0.5696 -1.7681  0.5333
    3ALA      C   25   8.367   9.355   9.045 -0.1959  0.4174 -0.3304
    3ALA      O   26   8.305   9.391   9.145  0.2722  0.0111 -0.3351
    4ALA      N   27   8.448   9.437   8.973  0.3358  0.5127  0.2548
    4ALA      H   28   8.497   9.399   8.893  3.1942  3.5978  0.3057
    4ALA     CA   29   8.485   9.576   8.988 -0.2409  0.2984 -0.3868
    4ALA     HA   30   8.438   9.640   8.913 -0.8422 -0.1773 -0.4215
    4ALA     CB   31   8.441   9.645   9.120 -0.3136 -0.4423  0.2207
    4ALA    HB1   32   8.478   9.747   9.122 -0.1112 -0.5089  0.0129
    4ALA    HB2   33   8.332   9.644   9.117 -0.3471  0.5099  0.7064
    4ALA    HB3   34   8.479   9.591   9.207  0.2093  0.9119  0.8739
    4ALA      C   35   8.635   9.595   8.966  0.6608  0.6956  0.1757
    4ALA      O   36   8.663   9.700   8.911  0.1127 -0.6727 -0.1406
    5NME      N   37   8.723   9.494   8.998 -0.0563 -0.0061  0.0993
    5NME      H   38   8.686   9.405   9.029  0.8826 -0.6969 -0.6906
    5NME    CH3   39   8.871   9.500   8.979  0.5636 -0.0147  0.2610
    5NME   HH31   40   8.905   9.453   8.887  1.0764  0.3614  0.2518
    5NME   HH32   41   8.909   9.602   8.986  1.5199 -0.4255  1.4946
    5NME   HH33   42   8.915   9.453   9.066  0.6750 -0.3740  0.0087
  20.91516  20.91516  20.91516
