Protein
   42
    1ACE   HH31    1  13.804  13.719   6.120  1.5671 -0.4316 -0.7393
    1ACE    CH3    2  13.870  13.636   6.143  0.8208 -0.7722  0.2949
    1ACE   HH32    3  13.972  13.675   6.138  1.1003 -1.5663 -0.8839
    1ACE   HH33    4  13.845  13.553   6.077 -1.1243 -0.5708  0.7367
    1ACE      C    5  13.848  13.597   6.286 -0.4661 -0.1919 -0.4961
    1ACE      O    6  13.936  13.613   6.372  0.1104  0.0754 -0.1149
    2ALA      N    7  13.737  13.529   6.309 -0.2736  0.5252 -1.4125
    2ALA      H    8  13.668  13.518   6.236 -2.2080 -0.3604  0.4285
    2ALA     CA    9  13.690  13.491   6.446 -0.5035  0.9105 -0.3046
    2ALA     HA   10  13.731  13.566   6.514 -2.2180  1.3277  0.3169
    2ALA     CB   11  13.536  13.497   6.433  0.4796  0.3344 -0.0390
    2ALA    HB1   12  13.487  13.482   6.529 -1.4919  2.7404 -0.5853
    2ALA    HB2   13  13.519  13.603   6.411 -0.4511 -0.1920 -2.1084
    2ALA    HB3   14  13.503  13.438   6.347  2.9437 -2.0475  0.5101
    2ALA      C   15  13.736  13.348   6.487 -0.1081  0.4493 -0.3622
    2ALA      O   16  13.695  13.252   6.420  0.2964 -0.0130 -0.1972
    3ALA      N   17  13.820  13.314   6.584 -0.5269 -0.3701 -0.0900
    3ALA      H   18  13.822  13.216   6.610  0.2457 -0.3483 -0.0478
    3ALA     CA   19  13.913  13.407   6.662 -0.5523  0.2922  0.5899
    3ALA     HA   20  13.940  13.478   6.584  0.7300 -2.9002 -2.0549
    3ALA     CB   21  13.834  13.480   6.773 -0.0212  0.2691 -0.2753
    3ALA    HB1   22  13.890  13.568   6.806 -1.2687  1.5051 -1.3454
    3ALA    HB2   23  13.743  13.522   6.732  0.4649  0.1428 -1.5321
    3ALA    HB3   24  13.816  13.415   6.858 -0.4916  0.2775 -0.3661
    3ALA      C   25  14.048  13.349   6.701 -0.1650  0.1774  0.4210
    3ALA      O   26  14.116  13.395   6.788 -0.4184  0.7854  0.2648
    4ALA      N   27  14.078  13.233   6.647  0.3233  0.2464 -0.3177
    4ALA      H   28  14.015  13.199   6.576 -3.0948  0.1205  2.4785
    4ALA     CA   29  14.193  13.140   6.678 -0.4156  0.0489 -0.2157
    4ALA     HA   30  14.278  13.206   6.662  0.7153 -1.4041 -0.3759
    4ALA     CB   31  14.191  13.090   6.830 -0.8053 -0.2057  0.9705
    4ALA    HB1   32  14.196  13.180   6.892  1.0464 -1.0349  2.1468
    4ALA    HB2   33  14.099  13.033   6.841 -1.5729 -0.0081 -2.9029
    4ALA    HB3   34  14.285  13.043   6.861 -0.3003  0.8035  1.0164
    4ALA      C   35  14.193  13.027   6.567  0.0974 -0.8015 -0.4544
    4ALA      O   36  14.086  13.005   6.508  0.6072 -0.1193 -0.2142
    5NME      N   37  14.309  12.968   6.537  0.6843 -0.1421  1.0515
    5NME      H   38  14.391  13.006   6.582  0.8630  0.7440  0.0318
    5NME    CH3   39  14.317  12.879   6.425  0.0304  0.0605 -0.1917
    5NME   HH31   40  14.273  12.780   6.438 -1.2355  0.0062 -3.7054
    5NME   HH32   41  14.277  12.932   6.339 -1.4749  0.7920  0.9235
    5NME   HH33   42  14.422  12.859   6.402  0.2693 -0.1202  0.9690
  20.91516  20.91516  20.91516
