Protein
   42
    1ACE   HH31    1  10.141   5.673   8.756  0.6561  2.4567  1.2688
    1ACE    CH3    2  10.070   5.737   8.703 -0.0462  0.6164 -0.0950
    1ACE   HH32    3   9.980   5.682   8.677  1.0519 -1.3942  0.1232
    1ACE   HH33    4  10.113   5.779   8.612 -0.3108  0.8094 -0.1345
    1ACE      C    5  10.056   5.854   8.807  0.0038 -0.0423 -0.4769
    1ACE      O    6  10.030   5.826   8.921 -0.3329  0.0032  0.6760
    2ALA      N    7  10.062   5.980   8.758  0.4588  0.1975  0.0178
    2ALA      H    8  10.061   5.997   8.659 -0.9526  2.9137  0.3918
    2ALA     CA    9  10.047   6.097   8.845 -0.3669  0.1334  0.5239
    2ALA     HA   10  10.025   6.074   8.949  2.3165 -1.1592  0.8834
    2ALA     CB   11  10.186   6.159   8.846 -0.0538 -0.4672 -0.4132
    2ALA    HB1   12  10.262   6.082   8.854 -0.4300 -0.7728  0.2166
    2ALA    HB2   13  10.201   6.206   8.748  2.6738 -2.4749 -1.1085
    2ALA    HB3   14  10.197   6.231   8.927  0.2839 -3.0968  1.9776
    2ALA      C   15   9.941   6.185   8.776 -0.1056  0.5572 -0.7823
    2ALA      O   16   9.914   6.184   8.653 -0.0061  0.1139  0.1454
    3ALA      N   17   9.872   6.263   8.859  0.0293  0.0243  0.0544
    3ALA      H   18   9.901   6.256   8.956  1.4883 -0.6541 -0.3879
    3ALA     CA   19   9.768   6.365   8.823  0.0813 -0.2435  0.3601
    3ALA     HA   20   9.768   6.369   8.714  2.2648  0.1881  0.3258
    3ALA     CB   21   9.632   6.316   8.876 -0.3431  0.5562 -0.0446
    3ALA    HB1   22   9.609   6.220   8.829  2.3363 -0.4622  0.5556
    3ALA    HB2   23   9.622   6.301   8.984  0.4805 -1.5651 -0.2253
    3ALA    HB3   24   9.557   6.388   8.841 -0.1741 -0.3969 -2.5903
    3ALA      C   25   9.810   6.507   8.864  0.0639 -0.2567 -0.4546
    3ALA      O   26   9.721   6.590   8.889 -0.5964  0.5173  0.1107
    4ALA      N   27   9.942   6.532   8.870 -0.1539  0.4915 -0.4980
    4ALA      H   28  10.001   6.455   8.839 -0.6980 -1.3328  2.5343
    4ALA     CA   29  10.011   6.642   8.930 -0.0407  0.7711  0.2026
    4ALA     HA   30  10.019   6.729   8.864 -1.7376  2.1125  1.6697
    4ALA     CB   31   9.943   6.681   9.065 -0.4019 -0.3936 -0.1791
    4ALA    HB1   32   9.989   6.773   9.101 -1.2004  0.8146 -2.0380
    4ALA    HB2   33   9.842   6.719   9.046 -0.0005 -0.0555 -1.7836
    4ALA    HB3   34   9.945   6.605   9.142  1.0156  0.8906  1.1124
    4ALA      C   35  10.149   6.593   8.978  0.7214 -0.6545  0.2971
    4ALA      O   36  10.182   6.477   8.973  0.1553  0.2075  0.0414
    5NME      N   37  10.231   6.685   9.025  0.1418 -0.5638  0.0454
    5NME      H   38  10.198   6.778   9.006 -0.6775 -0.9702 -0.5951
    5NME    CH3   39  10.342   6.659   9.111  0.3851  0.2586  0.0448
    5NME   HH31   40  10.417   6.738   9.104 -0.7962  1.2975 -1.4227
    5NME   HH32   41  10.305   6.668   9.213 -1.6072  2.0939 -0.7824
    5NME   HH33   42  10.387   6.563   9.085 -1.8596 -0.4972 -1.3630
  20.91516  20.91516  20.91516
