Protein
   42
    1ACE   HH31    1  12.681   4.486  10.544  0.2876  0.6580 -1.2873
    1ACE    CH3    2  12.695   4.541  10.637 -0.2606  0.1163 -0.8752
    1ACE   HH32    3  12.596   4.557  10.679  0.2566  1.5282 -0.1347
    1ACE   HH33    4  12.744   4.636  10.615 -1.2418  1.2949  1.5677
    1ACE      C    5  12.778   4.463  10.737  0.4410 -0.5814 -0.1089
    1ACE      O    6  12.867   4.388  10.700 -0.4001 -0.1611  0.1361
    2ALA      N    7  12.765   4.500  10.861 -0.0263 -0.5034  0.1628
    2ALA      H    8  12.688   4.563  10.878 -0.0200  0.2990 -2.4480
    2ALA     CA    9  12.846   4.457  10.979  0.5847  0.6492  0.2439
    2ALA     HA   10  12.845   4.541  11.049 -0.9931  0.9168 -0.0522
    2ALA     CB   11  12.764   4.343  11.042 -0.6749  0.3569  0.2609
    2ALA    HB1   12  12.748   4.263  10.970  1.6090 -0.6733  0.8248
    2ALA    HB2   13  12.815   4.303  11.130  0.4299  0.1065 -0.4658
    2ALA    HB3   14  12.671   4.377  11.088 -0.9141  0.0577  0.0055
    2ALA      C   15  12.994   4.410  10.945  0.2808 -0.1588 -0.1066
    2ALA      O   16  13.033   4.298  10.981 -0.7108 -0.1321  0.0421
    3ALA      N   17  13.087   4.485  10.882  0.3015  0.1332  0.1414
    3ALA      H   18  13.172   4.435  10.862 -0.1237 -0.5258 -0.0428
    3ALA     CA   19  13.082   4.623  10.845  0.3110  0.0292  0.2129
    3ALA     HA   20  12.978   4.650  10.830 -0.1869 -0.7298  2.0013
    3ALA     CB   21  13.154   4.714  10.948  0.2241  0.6361 -0.0250
    3ALA    HB1   22  13.131   4.818  10.926  0.3160  0.4279 -1.1576
    3ALA    HB2   23  13.119   4.691  11.049  2.5697 -0.7433  0.5710
    3ALA    HB3   24  13.261   4.700  10.931  0.4802  3.3533 -1.1316
    3ALA      C   25  13.131   4.652  10.701 -0.7489  0.3732  0.8472
    3ALA      O   26  13.204   4.754  10.675  0.1544  0.7240  0.4261
    4ALA      N   27  13.092   4.573  10.605  0.0928  0.3559  0.9884
    4ALA      H   28  13.042   4.487  10.623  1.3616 -0.3609  1.2997
    4ALA     CA   29  13.146   4.591  10.465 -0.4023 -0.0962 -1.2321
    4ALA     HA   30  13.250   4.620  10.483 -0.4390 -1.3059  1.3058
    4ALA     CB   31  13.156   4.458  10.397 -0.2260  0.5485  0.4956
    4ALA    HB1   32  13.196   4.470  10.296 -1.7252 -0.1632 -0.2084
    4ALA    HB2   33  13.216   4.390  10.458 -0.1937  0.4427  0.3482
    4ALA    HB3   34  13.061   4.406  10.383  0.0897 -0.6196  2.3556
    4ALA      C   35  13.078   4.695  10.379  0.5412 -1.2046  0.0973
    4ALA      O   36  13.020   4.667  10.269 -0.2043 -0.3058  0.0920
    5NME      N   37  13.074   4.826  10.428  0.6354  0.6564 -0.3773
    5NME      H   38  13.124   4.841  10.515 -0.0426 -1.7726  0.5320
    5NME    CH3   39  12.994   4.930  10.364 -0.3116 -0.6030 -0.5036
    5NME   HH31   40  13.010   5.014  10.432  2.5405 -2.6274  1.5198
    5NME   HH32   41  13.044   4.947  10.269 -0.9669  0.1770 -0.7247
    5NME   HH33   42  12.892   4.894  10.348  0.2407 -1.5611 -2.0792
  20.91516  20.91516  20.91516
