Protein
   22
    1ACE   HH31    1   8.607   8.656   5.023  1.5373  2.6953 -1.9938
    1ACE    CH3    2   8.682   8.683   5.098  0.7390  0.3216 -0.1654
    1ACE   HH32    3   8.783   8.691   5.059  0.6230 -1.8752 -1.0369
    1ACE   HH33    4   8.666   8.615   5.181 -0.3691  0.6316 -0.1070
    1ACE      C    5   8.640   8.826   5.145 -0.4790  0.0162 -0.7133
    1ACE      O    6   8.617   8.843   5.265 -0.4138 -0.5731 -0.2425
    2ALA      N    7   8.629   8.928   5.062 -0.0182  0.2930  0.7336
    2ALA      H    8   8.662   8.897   4.972 -1.3632 -0.4562  0.4723
    2ALA     CA    9   8.589   9.064   5.087 -0.0568 -0.2491  0.3098
    2ALA     HA   10   8.630   9.090   5.184 -2.3771 -0.1930  1.3303
    2ALA     CB   11   8.659   9.154   4.985 -0.8744 -0.1813 -0.0856
    2ALA    HB1   12   8.766   9.152   5.004 -0.7210 -0.2273 -0.9033
    2ALA    HB2   13   8.641   9.124   4.881  0.2593  0.2299 -0.4199
    2ALA    HB3   14   8.651   9.259   5.014  0.5598 -0.6038  2.0137
    2ALA      C   15   8.437   9.097   5.106 -0.0654  0.1005  0.1024
    2ALA      O   16   8.360   9.007   5.152  0.7040 -0.5564 -0.4560
    3NME      N   17   8.399   9.222   5.079  0.1987 -0.2061 -0.5191
    3NME      H   18   8.474   9.278   5.042  0.3639  0.0833  0.2458
    3NME    CH3   19   8.263   9.286   5.100  0.5313  0.3563  0.7467
    3NME   HH31   20   8.266   9.377   5.159  0.9750  0.8435 -0.0074
    3NME   HH32   21   8.233   9.318   5.000 -1.5848 -0.4293  1.0872
    3NME   HH33   22   8.184   9.217   5.129  0.0099  0.9889  0.8622
  10.72160  10.72160  10.72160
