Protein
   32
    1ACE   HH31    1   8.129  11.949  11.083  0.0348  0.2421 -0.3107
    1ACE    CH3    2   8.062  12.025  11.043 -0.8096 -0.0552  0.4792
    1ACE   HH32    3   7.987  12.047  11.119 -1.0241  1.7848 -0.2181
    1ACE   HH33    4   8.019  11.970  10.960 -0.5108 -1.8811  1.4895
    1ACE      C    5   8.136  12.156  10.994  0.0049 -0.5167  0.6487
    1ACE      O    6   8.209  12.211  11.073  0.1028 -0.0143  0.2755
    2ALA      N    7   8.107  12.211  10.879 -0.1709 -0.3228  0.3987
    2ALA      H    8   8.026  12.182  10.827  0.7361 -0.9111 -0.7424
    2ALA     CA    9   8.186  12.325  10.826 -0.2211  0.0154  0.8554
    2ALA     HA   10   8.224  12.384  10.910 -0.1207  2.6956 -0.9461
    2ALA     CB   11   8.305  12.277  10.734  0.4311  0.6827 -0.5718
    2ALA    HB1   12   8.373  12.230  10.805 -0.0880  1.5825  0.5644
    2ALA    HB2   13   8.270  12.203  10.663  3.0542 -3.4045  2.0061
    2ALA    HB3   14   8.361  12.360  10.690 -0.1986  0.6013 -1.5384
    2ALA      C   15   8.100  12.422  10.741  0.4104  0.7923  0.4169
    2ALA      O   16   8.045  12.380  10.640 -0.1651  0.5047  0.0488
    3ALA      N   17   8.106  12.546  10.785  0.4613 -0.0558 -0.0193
    3ALA      H   18   8.164  12.570  10.865 -3.0720  1.1395  2.4043
    3ALA     CA   19   8.078  12.671  10.712 -0.0155 -0.2458 -0.2883
    3ALA     HA   20   7.984  12.664  10.657 -0.1365  1.2184 -0.3215
    3ALA     CB   21   8.057  12.788  10.808 -0.3914  0.1072  0.4731
    3ALA    HB1   22   7.989  12.752  10.885 -0.4357  1.7712  1.2454
    3ALA    HB2   23   8.149  12.813  10.860 -0.7974  1.1118  0.7219
    3ALA    HB3   24   8.030  12.882  10.760  0.2120 -1.0348 -2.2958
    3ALA      C   25   8.187  12.707  10.607  0.0341  0.4454 -0.5034
    3ALA      O   26   8.305  12.692  10.626 -0.3106 -0.2466 -0.0870
    4NME      N   27   8.134  12.776  10.502  0.1068 -0.0857 -0.1989
    4NME      H   28   8.036  12.800  10.509  0.1020 -0.0316 -0.4463
    4NME    CH3   29   8.216  12.819  10.385 -0.3648  0.6047  0.3429
    4NME   HH31   30   8.183  12.919  10.355 -0.2298  0.8871  1.1238
    4NME   HH32   31   8.323  12.810  10.406  0.0474 -0.5945 -1.8697
    4NME   HH33   32   8.196  12.749  10.303  1.3050 -1.4123  1.5722
  20.99041  20.99041  20.99041
