Protein
   32
    1ACE   HH31    1  11.036  10.838   8.788 -0.0053  0.5167 -0.0640
    1ACE    CH3    2  11.064  10.879   8.885  0.3332 -0.4497  0.2603
    1ACE   HH32    3  11.070  10.808   8.967 -0.6380  2.5246  3.1005
    1ACE   HH33    4  10.985  10.952   8.903 -0.8532 -1.3614 -1.0093
    1ACE      C    5  11.200  10.944   8.867 -0.1289  0.1729 -0.1685
    1ACE      O    6  11.286  10.930   8.955  0.2665  0.2190 -0.0272
    2ALA      N    7  11.206  11.027   8.763  1.0394  0.4337 -0.2648
    2ALA      H    8  11.117  11.027   8.715  0.1075 -0.9212  1.3748
    2ALA     CA    9  11.322  11.074   8.688  0.2196 -0.2541  0.7617
    2ALA     HA   10  11.390  11.121   8.759 -0.8062 -0.0540  1.6569
    2ALA     CB   11  11.379  10.948   8.618  0.0093 -0.2540 -0.4159
    2ALA    HB1   12  11.483  10.977   8.600  0.2331 -1.6757 -1.6371
    2ALA    HB2   13  11.378  10.867   8.691  0.6773  0.7561  0.7485
    2ALA    HB3   14  11.323  10.911   8.533  0.2575 -0.0669 -0.6627
    2ALA      C   15  11.273  11.170   8.583  0.2443 -0.1235 -0.4475
    2ALA      O   16  11.173  11.162   8.516  0.1920  0.0802 -0.3502
    3ALA      N   17  11.353  11.274   8.567 -0.7481  0.0973 -0.7565
    3ALA      H   18  11.442  11.281   8.613 -1.1607  3.0132 -0.1815
    3ALA     CA   19  11.330  11.382   8.473 -0.7217 -0.1763  0.4767
    3ALA     HA   20  11.236  11.426   8.504 -0.5205  1.1532 -0.7342
    3ALA     CB   21  11.427  11.498   8.504 -0.3420 -0.1302  0.4862
    3ALA    HB1   22  11.522  11.463   8.463 -0.6278 -0.7247  0.3035
    3ALA    HB2   23  11.392  11.592   8.460  0.2282  0.5445  1.4506
    3ALA    HB3   24  11.435  11.502   8.612 -0.9562  1.2653  0.5113
    3ALA      C   25  11.319  11.338   8.328  0.2931  0.0569  0.1197
    3ALA      O   26  11.381  11.244   8.290 -0.6030 -0.4410  0.0490
    4NME      N   27  11.216  11.387   8.255  0.0011  0.1156 -0.5458
    4NME      H   28  11.161  11.463   8.291 -0.9880 -0.6623 -0.3718
    4NME    CH3   29  11.184  11.336   8.117  0.7730  0.5186 -0.2805
    4NME   HH31   30  11.192  11.228   8.118 -0.3134  0.4387  1.0438
    4NME   HH32   31  11.084  11.363   8.082  0.0245 -0.1229  1.2813
    4NME   HH33   32  11.262  11.375   8.050  0.7089 -0.3832 -0.9044
  20.99041  20.99041  20.99041
