Protein
   42
    1ACE   HH31    1  11.115  12.029  19.296 -1.4303 -0.0902  0.0401
    1ACE    CH3    2  11.154  12.097  19.372 -0.3152 -0.2164 -0.3822
    1ACE   HH32    3  11.131  12.192  19.323  0.3677 -0.6577 -1.6074
    1ACE   HH33    4  11.255  12.085  19.410 -0.1701  0.5901 -0.4964
    1ACE      C    5  11.063  12.087  19.497 -0.0994  0.4871  0.1972
    1ACE      O    6  11.108  12.055  19.603 -0.1813 -0.3502  0.1740
    2ALA      N    7  10.938  12.121  19.474  0.4394 -0.0245 -0.3980
    2ALA      H    8  10.911  12.135  19.378  2.1682  1.4538 -0.7370
    2ALA     CA    9  10.828  12.146  19.572  0.0965 -0.0217 -0.3914
    2ALA     HA   10  10.808  12.253  19.578  3.2074  0.5672  1.7852
    2ALA     CB   11  10.710  12.064  19.504  0.3160 -0.3790 -0.4768
    2ALA    HB1   12  10.681  12.117  19.413 -0.7620 -0.2381 -0.0588
    2ALA    HB2   13  10.739  11.962  19.480 -1.1257 -1.0070  0.3425
    2ALA    HB3   14  10.616  12.072  19.559  1.8411 -0.9396  2.3780
    2ALA      C   15  10.848  12.097  19.716  0.7660 -0.2514 -0.1976
    2ALA      O   16  10.809  11.986  19.754 -0.3357 -0.0136  0.8782
    3ALA      N   17  10.899  12.175  19.810 -0.0117  0.0028  0.6902
    3ALA      H   18  10.918  12.117  19.890 -0.5863  0.2753  1.0395
    3ALA     CA   19  10.985  12.295  19.795 -0.3239 -0.0595  0.5906
    3ALA     HA   20  11.030  12.290  19.696 -2.1659 -0.9195 -0.2225
    3ALA     CB   21  10.906  12.422  19.804 -0.0759  0.6934 -0.6784
    3ALA    HB1   22  10.845  12.436  19.715  1.2027 -0.2494 -1.7505
    3ALA    HB2   23  10.846  12.424  19.895 -0.0369  0.8252 -0.6554
    3ALA    HB3   24  10.987  12.495  19.808  0.7033 -0.1785 -0.4597
    3ALA      C   25  11.097  12.279  19.892 -0.2677 -0.3396 -0.2479
    3ALA      O   26  11.128  12.371  19.970 -0.0562 -0.1294 -0.0870
    4ALA      N   27  11.148  12.156  19.908 -0.0698  0.5612  0.0297
    4ALA      H   28  11.141  12.098  19.825  0.8767  0.9949 -0.3702
    4ALA     CA   29  11.227  12.106  20.024  0.5811 -0.6012 -0.0855
    4ALA     HA   30  11.185  12.128  20.122  1.4534  1.7041 -0.1756
    4ALA     CB   31  11.221  11.952  20.022  0.6759  0.1724  0.1985
    4ALA    HB1   32  11.126  11.905  20.045  1.3089 -0.4804  1.5747
    4ALA    HB2   33  11.258  11.903  19.932 -0.5973 -2.1430  0.8672
    4ALA    HB3   34  11.292  11.920  20.099  0.4317 -1.7330 -0.3382
    4ALA      C   35  11.373  12.162  20.023  0.2759 -0.1020  0.1491
    4ALA      O   36  11.469  12.096  20.065  0.0361 -0.1685 -0.2615
    5NME      N   37  11.392  12.286  19.989  0.0174  0.1409  0.2562
    5NME      H   38  11.309  12.343  19.980  0.6304  0.8166 -1.5833
    5NME    CH3   39  11.524  12.355  19.990  0.2962 -0.3248 -0.3615
    5NME   HH31   40  11.509  12.462  19.978 -0.3252 -0.4911 -1.2707
    5NME   HH32   41  11.589  12.348  20.076  0.6944  0.2619 -0.6064
    5NME   HH33   42  11.576  12.315  19.903 -2.1732 -0.9554 -1.6679
  20.91516  20.91516  20.91516
