Protein
   60
    1ACE   HH31    1  19.007  22.304  20.812  1.7408 -1.0359 -1.2528
    1ACE    CH3    2  18.993  22.385  20.740  0.0448  0.1318  0.3178
    1ACE   HH32    3  19.017  22.361  20.636 -0.1216 -0.5998  0.4418
    1ACE   HH33    4  18.888  22.412  20.728  0.3859  0.9353 -1.0578
    1ACE      C    5  19.065  22.507  20.785 -0.4991 -0.5227 -0.5771
    1ACE      O    6  19.140  22.503  20.880 -0.5565  0.2404 -0.5945
    2TRP      N    7  19.042  22.624  20.738  0.9516 -0.2375  0.0797
    2TRP      H    8  19.080  22.702  20.790  1.9407 -0.0122 -0.9504
    2TRP     CA    9  18.983  22.659  20.610 -0.0546  0.2214 -0.8158
    2TRP     HA   10  18.985  22.580  20.535 -1.7418  1.3880 -2.1470
    2TRP     CB   11  18.840  22.705  20.627 -0.2946  0.1748  0.2401
    2TRP    HB1   12  18.825  22.784  20.701  0.7738  1.5471 -0.9785
    2TRP    HB2   13  18.773  22.628  20.666 -1.5333  0.7458 -0.6907
    2TRP     CG   14  18.762  22.754  20.504 -0.1548 -0.4339  1.0591
    2TRP    CD1   15  18.729  22.684  20.393 -0.1660 -0.2085 -0.1495
    2TRP    HD1   16  18.750  22.579  20.382 -1.2059 -0.5417  0.8578
    2TRP    NE1   17  18.670  22.765  20.299  0.6761  0.0318 -0.2962
    2TRP    HE1   18  18.653  22.735  20.205 -0.5879 -1.0922  0.2510
    2TRP    CE2   19  18.670  22.897  20.341 -0.0816  0.2573 -0.5319
    2TRP    CZ2   20  18.636  23.020  20.282 -1.1736  0.1442  0.5661
    2TRP    HZ2   21  18.600  23.018  20.181  1.0351  0.8708 -0.3105
    2TRP    CH2   22  18.666  23.144  20.346 -0.1917  0.1774 -0.6831
    2TRP    HH2   23  18.640  23.233  20.291 -0.5017 -0.2212 -1.1977
    2TRP    CZ3   24  18.716  23.139  20.473 -0.1119 -0.4052 -0.0660
    2TRP    HZ3   25  18.745  23.231  20.522  2.0430 -1.4777  0.8079
    2TRP    CE3   26  18.750  23.021  20.535  0.8429 -0.2741  0.6885
    2TRP    HE3   27  18.807  23.019  20.627  1.5338  1.0035  0.3223
    2TRP    CD2   28  18.732  22.897  20.473  0.1940 -0.4971  0.5930
    2TRP      C   29  19.063  22.775  20.556  0.4704 -0.0550  0.4858
    2TRP      O   30  19.096  22.870  20.629  0.4021 -0.0787 -0.2016
    3TRP      N   31  19.087  22.795  20.422 -0.6780  0.0839  0.1566
    3TRP      H   32  19.139  22.879  20.402  0.5211 -0.6249  0.1505
    3TRP     CA   33  19.064  22.700  20.315  0.6399 -0.3712 -0.8113
    3TRP     HA   34  18.973  22.650  20.346  0.7267  0.6124  1.2005
    3TRP     CB   35  19.196  22.613  20.294 -0.0429 -0.1384 -0.7994
    3TRP    HB1   36  19.173  22.547  20.210 -1.4480  0.2763 -0.7607
    3TRP    HB2   37  19.273  22.682  20.258 -0.6686  2.0034  1.7312
    3TRP     CG   38  19.250  22.533  20.417  0.1161 -0.0461  0.0895
    3TRP    CD1   39  19.309  22.589  20.524 -0.2231  0.4625 -0.3439
    3TRP    HD1   40  19.349  22.689  20.528  2.2986 -0.5567  2.9138
    3TRP    NE1   41  19.349  22.490  20.607  0.2931  0.0027  0.1290
    3TRP    HE1   42  19.397  22.496  20.696 -0.8865  0.1883  0.7716
    3TRP    CE2   43  19.302  22.370  20.574 -0.2704 -0.0585 -0.1055
    3TRP    CZ2   44  19.314  22.243  20.634  1.0735 -0.6644 -0.0583
    3TRP    HZ2   45  19.382  22.230  20.718  0.6842  0.6711  0.4829
    3TRP    CH2   46  19.242  22.138  20.573  0.0038 -0.0490 -0.0766
    3TRP    HH2   47  19.243  22.039  20.615  1.7133 -1.2624 -2.7885
    3TRP    CZ3   48  19.171  22.157  20.449 -0.0110 -0.0282 -0.2674
    3TRP    HZ3   49  19.129  22.071  20.398 -0.8542  0.4551 -0.4069
    3TRP    CE3   50  19.169  22.283  20.385  0.3399 -0.8119 -0.7062
    3TRP    HE3   51  19.111  22.292  20.295 -0.6396  0.3708  0.0223
    3TRP    CD2   52  19.233  22.392  20.446  0.0542 -0.6525 -0.1447
    3TRP      C   53  19.019  22.765  20.185  0.1892  0.0839 -0.0602
    3TRP      O   54  18.984  22.688  20.094  0.5147 -0.3541  0.0364
    4NME      N   55  19.026  22.895  20.169 -0.4726 -0.2719 -0.3347
    4NME      H   56  19.058  22.948  20.249 -2.7842 -0.8682  1.0607
    4NME    CH3   57  18.985  22.971  20.046 -0.5089 -0.3418  0.6018
    4NME   HH31   58  19.076  22.983  19.987  0.6090  0.6237  2.4123
    4NME   HH32   59  18.924  22.905  19.984 -0.1696  0.0195 -0.1246
    4NME   HH33   60  18.942  23.068  20.072  0.6269  0.1750  0.6646
  41.12396  41.12396  41.12396
