Protein
   60
    1ACE   HH31    1  21.807  20.389  16.682 -0.8255 -1.0173  0.4361
    1ACE    CH3    2  21.742  20.403  16.595  0.2698  0.1648 -0.2345
    1ACE   HH32    3  21.637  20.399  16.626 -0.1859  1.8688 -1.4266
    1ACE   HH33    4  21.745  20.499  16.544  0.1743  0.5079  0.3895
    1ACE      C    5  21.763  20.291  16.495  0.6866  0.0209 -0.7413
    1ACE      O    6  21.769  20.173  16.537 -0.2782  0.2752 -0.9981
    2TRP      N    7  21.768  20.317  16.365 -0.1644 -0.3542  0.1661
    2TRP      H    8  21.791  20.235  16.312 -1.0190 -0.8644  0.5658
    2TRP     CA    9  21.736  20.442  16.281  0.0033 -0.7013  0.1991
    2TRP     HA   10  21.663  20.497  16.341  0.3387 -0.2940  0.2385
    2TRP     CB   11  21.856  20.538  16.252 -0.0306 -0.5216 -0.2119
    2TRP    HB1   12  21.929  20.493  16.184 -1.5229  0.9795 -3.0162
    2TRP    HB2   13  21.904  20.561  16.347 -1.6662  1.1052  0.3057
    2TRP     CG   14  21.815  20.666  16.196 -0.8510  0.3266  0.5582
    2TRP    CD1   15  21.832  20.697  16.060 -0.6594  0.0001 -0.6174
    2TRP    HD1   16  21.856  20.628  15.980 -1.5094  0.7663 -1.5525
    2TRP    NE1   17  21.773  20.823  16.040  0.9855 -0.3117  0.6155
    2TRP    HE1   18  21.751  20.866  15.951  0.5221 -0.1901  0.7850
    2TRP    CE2   19  21.734  20.878  16.161  0.5314  0.0062 -0.2186
    2TRP    CZ2   20  21.672  21.004  16.188 -0.9568  0.0093 -0.3390
    2TRP    HZ2   21  21.658  21.069  16.104 -2.0803 -0.3215 -0.4213
    2TRP    CH2   22  21.652  21.042  16.323  0.4640 -0.2351  0.5188
    2TRP    HH2   23  21.608  21.138  16.343  0.7337  0.6459 -2.5009
    2TRP    CZ3   24  21.681  20.944  16.423 -1.1323 -0.0373  0.4510
    2TRP    HZ3   25  21.655  20.961  16.527 -1.5735 -0.1280  0.3524
    2TRP    CE3   26  21.730  20.818  16.396  0.4842  0.1999 -0.0308
    2TRP    HE3   27  21.745  20.753  16.481  0.2459  2.0358  1.4617
    2TRP    CD2   28  21.757  20.783  16.260 -0.6761 -0.4616 -0.9865
    2TRP      C   29  21.664  20.399  16.151 -0.0561 -0.1708  0.5314
    2TRP      O   30  21.705  20.299  16.099  0.2215 -0.4438  0.5204
    3TRP      N   31  21.560  20.470  16.106 -0.4282  0.0590  0.6425
    3TRP      H   32  21.524  20.437  16.018  0.9122  1.2640 -0.3894
    3TRP     CA   33  21.485  20.582  16.165  0.1995 -0.4914 -0.3563
    3TRP     HA   34  21.546  20.634  16.239 -0.4343 -0.4201  0.1307
    3TRP     CB   35  21.354  20.525  16.237  0.5456  0.2237 -0.4905
    3TRP    HB1   36  21.286  20.610  16.248 -0.3159 -0.1264 -2.7397
    3TRP    HB2   37  21.313  20.443  16.179 -0.3246  0.9326 -0.9074
    3TRP     CG   38  21.377  20.453  16.366 -0.1856  0.5903  0.2646
    3TRP    CD1   39  21.420  20.323  16.383  0.2381 -0.1530  0.4773
    3TRP    HD1   40  21.440  20.255  16.301 -0.3181 -0.6757  0.7711
    3TRP    NE1   41  21.437  20.285  16.512  0.1715 -0.2918 -0.1419
    3TRP    HE1   42  21.479  20.196  16.538 -2.3083 -1.5858 -0.1802
    3TRP    CE2   43  21.395  20.382  16.595 -0.0850 -0.8223  0.9064
    3TRP    CZ2   44  21.388  20.394  16.731 -0.1117 -0.1596 -0.2477
    3TRP    HZ2   45  21.425  20.315  16.796  0.8334  0.0233 -0.5341
    3TRP    CH2   46  21.338  20.514  16.791 -0.8194 -0.4335 -0.1599
    3TRP    HH2   47  21.338  20.532  16.897 -2.1342 -2.5943  0.2808
    3TRP    CZ3   48  21.283  20.615  16.704 -0.0842 -0.0275 -0.1962
    3TRP    HZ3   49  21.246  20.699  16.760 -0.8661 -0.4739 -0.0101
    3TRP    CE3   50  21.294  20.608  16.562  0.6280  0.1256 -0.8058
    3TRP    HE3   51  21.253  20.680  16.493 -0.9014  0.2358  0.1545
    3TRP    CD2   52  21.353  20.488  16.507  0.8431 -0.8147  0.2799
    3TRP      C   53  21.457  20.686  16.055  0.6444 -0.1413 -0.2703
    3TRP      O   54  21.478  20.662  15.935  0.0353 -0.1997  0.3761
    4NME      N   55  21.417  20.808  16.104  0.0883  0.3412 -0.1440
    4NME      H   56  21.412  20.828  16.203  0.7685 -0.4010  0.0495
    4NME    CH3   57  21.364  20.916  16.013 -0.0697  0.2488  0.0208
    4NME   HH31   58  21.257  20.925  16.032  0.4248  2.6864  2.3648
    4NME   HH32   59  21.405  21.012  16.045 -0.8289  0.4035  0.5439
    4NME   HH33   60  21.384  20.889  15.910  0.3326 -0.3107  0.2411
  41.12396  41.12396  41.12396
