Protein
   42
    1ACE   HH31    1  14.980   2.310  10.353 -1.5638  1.6481 -1.5239
    1ACE    CH3    2  14.910   2.235  10.314 -0.0564 -1.0058  0.5606
    1ACE   HH32    3  14.889   2.266  10.212  0.6121  0.6231  0.8757
    1ACE   HH33    4  14.818   2.217  10.369 -1.5933 -1.8726 -2.1551
    1ACE      C    5  14.973   2.096  10.311  0.3697  0.6087  0.5356
    1ACE      O    6  14.998   2.039  10.207 -0.4226 -0.3991  0.4176
    2ALA      N    7  15.005   2.038  10.426  0.7688  0.1370 -0.0927
    2ALA      H    8  14.985   2.085  10.514 -0.8423 -0.0279 -0.3422
    2ALA     CA    9  15.076   1.911  10.444  0.6777 -0.0233 -0.8133
    2ALA     HA   10  15.066   1.847  10.357 -0.5080 -0.4679 -0.3752
    2ALA     CB   11  15.226   1.942  10.467  0.6521 -0.0810 -0.9217
    2ALA    HB1   12  15.260   1.992  10.376 -1.8735 -1.8949 -3.0255
    2ALA    HB2   13  15.233   2.012  10.551  1.1918 -0.4012 -0.6927
    2ALA    HB3   14  15.288   1.853  10.474  0.8102  0.0199 -1.0269
    2ALA      C   15  15.003   1.839  10.564 -0.0576 -0.2556  0.1572
    2ALA      O   16  15.027   1.859  10.680 -0.0695 -0.5976  0.3954
    3ALA      N   17  14.920   1.744  10.531 -0.0590  0.3211  1.2343
    3ALA      H   18  14.919   1.721  10.433 -1.0906  0.7234  1.1406
    3ALA     CA   19  14.797   1.708  10.599 -0.6533  0.2348 -0.9189
    3ALA     HA   20  14.721   1.661  10.535 -1.6580 -2.6162  2.0587
    3ALA     CB   21  14.828   1.593  10.701  0.7060 -0.4227 -0.1522
    3ALA    HB1   22  14.847   1.502  10.644 -2.0697  0.2358 -2.3627
    3ALA    HB2   23  14.911   1.637  10.756  1.2471 -0.2245 -1.1080
    3ALA    HB3   24  14.743   1.571  10.765  0.8392 -0.9678 -0.1580
    3ALA      C   25  14.704   1.818  10.666 -0.1185 -0.3132 -0.3164
    3ALA      O   26  14.584   1.817  10.651 -0.1241  0.4579 -0.0633
    4ALA      N   27  14.762   1.920  10.739  0.2261  0.1633 -0.2629
    4ALA      H   28  14.862   1.935  10.727  0.2088  0.3328 -0.1948
    4ALA     CA   29  14.683   2.027  10.783 -0.7225  0.3641 -0.8076
    4ALA     HA   30  14.578   2.004  10.800 -0.8876  2.3866  1.4429
    4ALA     CB   31  14.735   2.058  10.925 -0.1185  0.5979 -0.1130
    4ALA    HB1   32  14.686   2.147  10.964  1.3579  0.8798  1.2061
    4ALA    HB2   33  14.714   1.979  10.997  0.9526 -1.1065 -1.5846
    4ALA    HB3   34  14.842   2.080  10.925  0.3192 -1.2003  1.4306
    4ALA      C   35  14.692   2.145  10.681 -0.0675 -0.3089  0.5142
    4ALA      O   36  14.788   2.157  10.604 -0.1084 -0.2263 -0.0389
    5NME      N   37  14.592   2.233  10.680  0.2899 -0.1151  0.2484
    5NME      H   38  14.522   2.226  10.753 -0.9980  0.0117 -0.9233
    5NME    CH3   39  14.554   2.324  10.576  0.1251 -0.6645 -0.2766
    5NME   HH31   40  14.445   2.336  10.576  0.0932 -0.8418  1.1293
    5NME   HH32   41  14.607   2.416  10.599  0.1504 -0.5405 -0.8073
    5NME   HH33   42  14.584   2.294  10.475 -1.5178 -2.7805 -0.2234
  20.91516  20.91516  20.91516
