Protein
   32
    1ACE   HH31    1   9.948  10.175  12.317  0.0227  2.0636  0.2818
    1ACE    CH3    2   9.844  10.169  12.285  0.0241 -0.0916  0.5098
    1ACE   HH32    3   9.842  10.116  12.190  2.3913 -0.0744  0.3816
    1ACE   HH33    4   9.806  10.269  12.265 -0.5177 -0.5570 -0.8842
    1ACE      C    5   9.761  10.111  12.395  0.7530 -0.4167 -0.0672
    1ACE      O    6   9.807  10.040  12.484 -0.7323 -0.0042  0.0372
    2ALA      N    7   9.632  10.132  12.389 -0.4972 -0.6553 -0.3600
    2ALA      H    8   9.618  10.186  12.305  1.8007  0.3618 -0.1719
    2ALA     CA    9   9.519  10.097  12.488  0.1407  0.0898  0.4002
    2ALA     HA   10   9.473  10.192  12.516  2.0513  1.6958 -1.5109
    2ALA     CB   11   9.430  10.000  12.413  0.8499  0.2639 -0.5751
    2ALA    HB1   12   9.398  10.039  12.317 -1.6972 -0.1842  0.0051
    2ALA    HB2   13   9.486   9.907  12.396  2.3844  1.2426 -1.0530
    2ALA    HB3   14   9.343   9.975  12.475  1.8802 -0.4055  0.6438
    2ALA      C   15   9.555  10.044  12.634 -0.3471  1.6000 -0.0221
    2ALA      O   16   9.528  10.117  12.726 -0.3790 -0.7189 -0.3817
    3ALA      N   17   9.613   9.925  12.645  0.3790 -0.1399  0.2732
    3ALA      H   18   9.639   9.880  12.559 -0.0504  0.4536 -0.1776
    3ALA     CA   19   9.643   9.855  12.772 -0.8915  0.6972 -0.5630
    3ALA     HA   20   9.575   9.892  12.848 -1.4064 -2.1360  0.5061
    3ALA     CB   21   9.613   9.705  12.758 -0.0716  0.3507  0.1263
    3ALA    HB1   22   9.679   9.657  12.686 -2.2057 -2.3858 -0.1275
    3ALA    HB2   23   9.635   9.663  12.856 -1.9267 -0.0610  0.4038
    3ALA    HB3   24   9.513   9.685  12.719 -0.1670  1.2234 -0.1026
    3ALA      C   25   9.782   9.889  12.835  0.7329 -0.2153 -0.7256
    3ALA      O   26   9.796   9.869  12.953 -0.4017  0.2632 -0.0962
    4NME      N   27   9.876   9.948  12.761  0.0483 -0.0434 -0.7848
    4NME      H   28   9.848   9.985  12.672 -1.3831  2.2128  0.4871
    4NME    CH3   29  10.008   9.975  12.822  0.4057  0.4855  0.3871
    4NME   HH31   30  10.053   9.887  12.868 -0.2539  0.3921  0.8626
    4NME   HH32   31  10.074   9.991  12.737 -0.1571 -0.1223 -0.1867
    4NME   HH33   32  10.003  10.054  12.896  0.5112 -1.2871  2.3716
  20.99041  20.99041  20.99041
