Protein
   32
    1ACE   HH31    1  10.204  13.460  12.964  1.3217  0.6795  0.0077
    1ACE    CH3    2  10.216  13.427  13.068  0.0834  0.2778  0.0455
    1ACE   HH32    3  10.193  13.322  13.087 -0.0351  0.7614  3.0267
    1ACE   HH33    4  10.147  13.475  13.137  0.1297  2.3998 -1.3164
    1ACE      C    5  10.359  13.464  13.115 -0.8333  0.0676 -0.6887
    1ACE      O    6  10.371  13.512  13.229 -0.2123  0.4212  0.0346
    2ALA      N    7  10.453  13.441  13.029  0.0072 -0.6716  0.7727
    2ALA      H    8  10.428  13.387  12.948  0.8269 -0.3329  0.2691
    2ALA     CA    9  10.593  13.472  13.044 -0.0573  0.6075 -0.3559
    2ALA     HA   10  10.625  13.413  13.130 -2.7448  3.4293  2.9202
    2ALA     CB   11  10.653  13.437  12.908 -0.7384  0.1745 -0.1723
    2ALA    HB1   12  10.612  13.494  12.824  1.0148  1.3518 -0.2770
    2ALA    HB2   13  10.760  13.420  12.916 -0.9407 -1.6235 -0.6821
    2ALA    HB3   14  10.611  13.339  12.883 -0.7803  0.3924 -1.0352
    2ALA      C   15  10.625  13.616  13.094  0.3119 -0.4480  0.8092
    2ALA      O   16  10.731  13.640  13.150 -0.3631  0.3486  0.2523
    3ALA      N   17  10.533  13.710  13.071  0.0705 -0.1985 -0.1928
    3ALA      H   18  10.441  13.688  13.035  0.8337 -1.5072 -1.4647
    3ALA     CA   19  10.564  13.852  13.106  0.0538 -0.0943 -0.6870
    3ALA     HA   20  10.641  13.849  13.183  0.1284 -1.8298 -0.7856
    3ALA     CB   21  10.615  13.938  12.985  0.1030 -0.1760  0.2277
    3ALA    HB1   22  10.710  13.900  12.945 -1.5531 -0.7645 -3.6630
    3ALA    HB2   23  10.545  13.940  12.902  1.1730 -1.8975 -0.7905
    3ALA    HB3   24  10.627  14.040  13.021  0.7096  0.1586 -0.8616
    3ALA      C   25  10.431  13.904  13.165  0.0803 -0.0151 -0.8024
    3ALA      O   26  10.372  14.002  13.124 -0.6382 -0.6563 -0.0516
    4NME      N   27  10.381  13.838  13.267  0.5019 -0.0062  0.4308
    4NME      H   28  10.424  13.749  13.287  0.1675 -1.1590 -3.2734
    4NME    CH3   29  10.255  13.869  13.329  0.3747  0.2386  0.5495
    4NME   HH31   30  10.167  13.845  13.269 -0.9547  0.2154  2.4552
    4NME   HH32   31  10.243  13.807  13.418 -1.2734  2.1998  1.7622
    4NME   HH33   32  10.243  13.972  13.361 -1.7719 -0.4002  2.0216
  20.99041  20.99041  20.99041
