Protein
   32
    1ACE   HH31    1  13.996   8.708   7.392  0.4078 -0.7940 -0.3310
    1ACE    CH3    2  14.026   8.746   7.489 -0.0383 -0.6309 -0.2498
    1ACE   HH32    3  13.997   8.677   7.568  0.7770  0.8836  1.4615
    1ACE   HH33    4  13.966   8.835   7.508 -0.7839 -1.2190  0.2643
    1ACE      C    5  14.177   8.765   7.489  0.2511 -0.0548 -0.1437
    1ACE      O    6  14.232   8.873   7.493  0.3092 -0.1659 -0.3707
    2ALA      N    7  14.247   8.653   7.488  0.0214  0.1472  0.2753
    2ALA      H    8  14.195   8.567   7.478 -0.7161  0.4228  1.4473
    2ALA     CA    9  14.393   8.653   7.470  0.2581 -0.5993 -0.0824
    2ALA     HA   10  14.423   8.745   7.420 -1.4956 -0.3930 -0.8434
    2ALA     CB   11  14.463   8.649   7.610  0.1973  0.1458 -0.0792
    2ALA    HB1   12  14.450   8.552   7.658  0.4502  0.4873  0.7002
    2ALA    HB2   13  14.569   8.672   7.596  0.0044  2.2846  1.4254
    2ALA    HB3   14  14.421   8.725   7.676 -0.1374 -1.6952  1.9325
    2ALA      C   15  14.444   8.538   7.376  0.0907  0.1192 -0.0935
    2ALA      O   16  14.514   8.576   7.280 -0.7663 -0.1688  0.0985
    3ALA      N   17  14.406   8.411   7.395  0.4169 -0.0744  0.7663
    3ALA      H   18  14.333   8.382   7.459  0.0152  0.7645  0.6996
    3ALA     CA   19  14.467   8.303   7.313 -0.4171  0.2030 -0.4753
    3ALA     HA   20  14.489   8.335   7.212  0.2359 -1.4169 -0.8681
    3ALA     CB   21  14.599   8.257   7.381 -0.1931 -0.4514 -0.2920
    3ALA    HB1   22  14.649   8.173   7.333  0.1541 -1.0504  1.0873
    3ALA    HB2   23  14.668   8.341   7.389  1.2063 -1.6234  0.1143
    3ALA    HB3   24  14.567   8.224   7.480 -0.3261  1.7362  0.4414
    3ALA      C   25  14.374   8.181   7.306  0.2036  0.2745 -0.7702
    3ALA      O   26  14.306   8.141   7.402 -0.1050 -0.1245 -0.3019
    4NME      N   27  14.375   8.108   7.194  0.4601 -0.0753 -0.4501
    4NME      H   28  14.433   8.136   7.116 -0.4345  0.8785 -0.7993
    4NME    CH3   29  14.328   7.976   7.181  0.1193  1.2677  0.2156
    4NME   HH31   30  14.270   7.962   7.089  0.0037  0.4970  0.3957
    4NME   HH32   31  14.410   7.904   7.178 -1.9835 -1.3139 -1.8561
    4NME   HH33   32  14.262   7.947   7.263  0.3654 -0.8341 -0.2704
  20.99041  20.99041  20.99041
