Protein
   32
    1ACE   HH31    1   9.624   6.953   9.457 -1.7722 -0.9136  0.8236
    1ACE    CH3    2   9.686   6.926   9.543  0.0320  0.0527 -0.0937
    1ACE   HH32    3   9.618   6.933   9.629  0.3505  3.0509 -0.0117
    1ACE   HH33    4   9.771   6.992   9.556 -0.8845  1.2162  0.1738
    1ACE      C    5   9.727   6.784   9.523 -0.5862 -0.0771  0.0903
    1ACE      O    6   9.689   6.701   9.602 -0.0742 -0.5843 -0.5061
    2ALA      N    7   9.819   6.764   9.430 -0.1699  0.0268 -0.7245
    2ALA      H    8   9.846   6.845   9.375 -0.6567  0.5962 -0.1548
    2ALA     CA    9   9.881   6.636   9.397 -0.3056 -0.7489 -0.1350
    2ALA     HA   10   9.801   6.563   9.412 -2.2965  1.2973 -0.3330
    2ALA     CB   11   9.938   6.648   9.261  0.3936 -0.7015  0.7766
    2ALA    HB1   12   9.856   6.676   9.195  0.3877 -0.3400  0.9376
    2ALA    HB2   13  10.010   6.730   9.269 -1.9231  1.8098 -1.9898
    2ALA    HB3   14   9.981   6.557   9.217 -0.6119 -2.2273  2.7966
    2ALA      C   15   9.993   6.592   9.496  0.3581 -1.1007  0.3541
    2ALA      O   16  10.070   6.671   9.544  0.2151 -0.2828 -0.1612
    3ALA      N   17   9.991   6.461   9.525 -0.4290  0.2044  0.6091
    3ALA      H   18   9.929   6.398   9.476  2.6243 -0.0732 -3.6148
    3ALA     CA   19  10.089   6.396   9.616 -0.4557 -0.3264  0.3461
    3ALA     HA   20  10.063   6.424   9.718 -0.1712  2.1244 -0.1903
    3ALA     CB   21  10.069   6.240   9.611  0.8049  0.4988  0.7358
    3ALA    HB1   22  10.125   6.200   9.526  1.9493 -0.1657  1.7463
    3ALA    HB2   23  10.113   6.200   9.702  0.1433 -1.0494  0.3926
    3ALA    HB3   24   9.964   6.213   9.607  1.1487 -0.7791 -0.9236
    3ALA      C   25  10.240   6.432   9.617  0.0022 -0.2019  0.2128
    3ALA      O   26  10.324   6.356   9.565 -0.3202  0.4299 -0.2328
    4NME      N   27  10.279   6.544   9.682 -0.5097  0.0970  0.2249
    4NME      H   28  10.212   6.596   9.736  0.1263  0.0433  1.0831
    4NME    CH3   29  10.417   6.576   9.713  0.1308  0.1253  0.1080
    4NME   HH31   30  10.420   6.684   9.728 -0.4043  0.3869 -1.4218
    4NME   HH32   31  10.454   6.516   9.796  0.7213  0.5157  0.1328
    4NME   HH33   32  10.483   6.566   9.627  1.4840  1.7457  0.9068
  20.99041  20.99041  20.99041
