Protein
   32
    1ACE   HH31    1  15.173  13.711   4.887 -3.5880 -1.4477 -0.0711
    1ACE    CH3    2  15.199  13.664   4.982  0.1822  0.4490  0.0181
    1ACE   HH32    3  15.255  13.571   4.968 -0.7364 -0.1568  0.2990
    1ACE   HH33    4  15.097  13.652   5.018 -0.0911 -3.5508 -1.6592
    1ACE      C    5  15.265  13.776   5.056 -0.1948 -0.2732 -0.5123
    1ACE      O    6  15.201  13.859   5.120  0.3462  0.3284  0.4474
    2ALA      N    7  15.401  13.780   5.045 -0.3566  0.3791  0.6854
    2ALA      H    8  15.454  13.703   5.007  1.5058  1.7023  0.4820
    2ALA     CA    9  15.481  13.887   5.099  0.3276  0.3095 -0.1161
    2ALA     HA   10  15.418  13.970   5.129 -0.4731 -0.1903 -0.3727
    2ALA     CB   11  15.539  13.837   5.228  0.7015 -0.6890 -0.6396
    2ALA    HB1   12  15.588  13.741   5.209 -0.4080 -1.3782 -0.1809
    2ALA    HB2   13  15.602  13.916   5.267 -0.6499  0.0123  0.2383
    2ALA    HB3   14  15.459  13.829   5.302  0.8458 -1.2234 -0.5358
    2ALA      C   15  15.586  13.940   4.995 -0.2623  0.2580 -0.3046
    2ALA      O   16  15.704  13.961   5.028  0.5719 -0.1843  0.4908
    3ALA      N   17  15.549  13.934   4.870  0.2258  0.1345 -0.1094
    3ALA      H   18  15.453  13.904   4.857  0.5259 -0.6325 -0.6027
    3ALA     CA   19  15.636  13.962   4.753  0.3320  0.8594 -0.3683
    3ALA     HA   20  15.709  14.037   4.782  1.3550 -0.6335  1.1615
    3ALA     CB   21  15.705  13.835   4.721  0.6751  0.3349  0.5937
    3ALA    HB1   22  15.643  13.767   4.662  2.3167 -0.5942 -0.1142
    3ALA    HB2   23  15.790  13.857   4.657  0.7210 -0.0857  0.4992
    3ALA    HB3   24  15.763  13.800   4.806  2.4783  1.7203 -0.0225
    3ALA      C   25  15.556  14.011   4.633  0.2202  0.5298 -0.5416
    3ALA      O   26  15.588  13.991   4.514  0.2369  0.0398 -0.0858
    4NME      N   27  15.446  14.081   4.663  0.0106  0.8195  0.1290
    4NME      H   28  15.418  14.079   4.760 -0.6460 -2.4241  0.0404
    4NME    CH3   29  15.355  14.151   4.569  0.1926  0.4646  0.0803
    4NME   HH31   30  15.386  14.132   4.467 -0.6207  0.4953 -0.1858
    4NME   HH32   31  15.257  14.102   4.579 -0.2220  1.4158  0.8271
    4NME   HH33   32  15.339  14.256   4.595 -1.7531  0.0063  1.0488
  20.99041  20.99041  20.99041
