Protein
   42
    1ACE   HH31    1   7.646  14.159   9.285 -1.3858  1.9891 -0.9886
    1ACE    CH3    2   7.728  14.170   9.215 -0.4962  0.1572 -0.3067
    1ACE   HH32    3   7.767  14.077   9.173 -0.3762 -0.5878  1.3998
    1ACE   HH33    4   7.808  14.220   9.269 -0.9116  0.6668 -0.1625
    1ACE      C    5   7.688  14.257   9.098  0.9252  0.3930 -0.6933
    1ACE      O    6   7.733  14.245   8.987  0.7293  0.1380 -0.1939
    2ALA      N    7   7.588  14.339   9.137  0.2320 -0.1399 -0.2770
    2ALA      H    8   7.560  14.342   9.234 -3.8433 -1.3739 -1.2183
    2ALA     CA    9   7.521  14.434   9.054  0.1466  0.2934 -0.0097
    2ALA     HA   10   7.413  14.429   9.072  0.4060  0.3532  1.6636
    2ALA     CB   11   7.573  14.568   9.108  0.7418  0.6025  0.5553
    2ALA    HB1   12   7.520  14.648   9.056  0.0016  0.0986  0.5160
    2ALA    HB2   13   7.549  14.573   9.214  2.5440  0.4356  1.0046
    2ALA    HB3   14   7.682  14.581   9.104  1.2165 -1.7374  3.2888
    2ALA      C   15   7.526  14.417   8.899 -0.2421  0.1097 -0.3087
    2ALA      O   16   7.536  14.511   8.825  0.4673  0.5781 -0.0898
    3ALA      N   17   7.494  14.294   8.847 -0.1744  0.1611 -0.5185
    3ALA      H   18   7.479  14.296   8.747  1.2624 -0.5973 -0.7636
    3ALA     CA   19   7.416  14.185   8.911  0.5180  0.2727  0.5548
    3ALA     HA   20   7.435  14.170   9.018 -1.9177  0.6363  1.0842
    3ALA     CB   21   7.267  14.234   8.889  0.4729 -0.2095 -0.1781
    3ALA    HB1   22   7.199  14.167   8.940 -1.1392  0.0410 -1.8777
    3ALA    HB2   23   7.248  14.332   8.933  2.4025  0.2970 -0.3429
    3ALA    HB3   24   7.247  14.229   8.782  2.6298  0.7934 -0.6844
    3ALA      C   25   7.459  14.053   8.843  0.1815  0.2646 -0.0265
    3ALA      O   26   7.381  13.958   8.821  0.5697 -0.3932 -0.4745
    4ALA      N   27   7.595  14.045   8.824 -0.0067  0.3850  0.7121
    4ALA      H   28   7.645  14.128   8.856  0.5987 -0.4509  2.0846
    4ALA     CA   29   7.674  13.925   8.805 -0.0789 -0.6999 -0.2758
    4ALA     HA   30   7.641  13.875   8.714  0.5030 -1.9844  0.1990
    4ALA     CB   31   7.825  13.962   8.772 -0.1779  0.4083 -0.4470
    4ALA    HB1   32   7.824  14.040   8.695 -1.7836 -0.6998 -1.6326
    4ALA    HB2   33   7.875  13.999   8.861  0.3430  0.8179 -0.9056
    4ALA    HB3   34   7.877  13.874   8.735 -0.3870 -0.4821  1.2862
    4ALA      C   35   7.668  13.831   8.923  0.7024  0.5388 -0.0649
    4ALA      O   36   7.700  13.865   9.034 -0.4586  0.2279 -0.5709
    5NME      N   37   7.623  13.706   8.885  0.6299 -0.6210 -0.4563
    5NME      H   38   7.587  13.696   8.791  1.7446 -0.1618 -0.9416
    5NME    CH3   39   7.648  13.588   8.971 -0.2642  0.0295  0.0515
    5NME   HH31   40   7.608  13.602   9.072  2.3421  2.2046  0.8941
    5NME   HH32   41   7.611  13.498   8.922  2.1592 -0.9417 -0.0804
    5NME   HH33   42   7.755  13.578   8.988 -0.4700 -2.4483  0.0755
  20.91516  20.91516  20.91516
