Title
  129
    1AIB    CAY    1  20.679  20.045  21.419 -0.0995  0.2552  1.2060
    1AIB    HY1    2  20.784  20.068  21.445  0.6049 -1.2134 -0.1816
    1AIB    HY2    3  20.620  20.060  21.512 -2.7172  1.0372 -0.4818
    1AIB    HY3    4  20.630  20.114  21.347 -0.0059  0.7002  1.5715
    1AIB     CY    5  20.680  19.903  21.364  0.1744  1.1726 -0.7583
    1AIB     OY    6  20.722  19.873  21.254 -0.1376  0.1027  0.2251
    1AIB      N    7  20.637  19.804  21.443 -0.5448 -0.3705  0.7112
    1AIB     HN    8  20.597  19.823  21.532 -1.0411 -2.5486  1.0287
    1AIB     CA    9  20.628  19.662  21.413 -0.2440  0.2845 -0.0515
    1AIB    CB1   10  20.540  19.624  21.532  0.0792  0.9974  0.0016
    1AIB   HB11   11  20.448  19.687  21.542  0.7590  2.1057 -0.5773
    1AIB   HB12   12  20.597  19.647  21.625  2.3585 -2.2446 -0.4616
    1AIB   HB13   13  20.510  19.517  21.531  0.3336  0.9271  0.1364
    1AIB    CB2   14  20.768  19.595  21.425  0.5719 -0.3598  0.1104
    1AIB   HB21   15  20.825  19.625  21.334 -1.8969  1.2640 -1.0151
    1AIB   HB22   16  20.759  19.484  21.418 -0.6279 -0.2070 -1.3721
    1AIB   HB23   17  20.822  19.619  21.518 -1.1054  1.0943  0.7659
    1AIB      C   18  20.555  19.628  21.279 -1.0647 -1.3407 -0.1093
    1AIB      O   19  20.600  19.534  21.213  0.3668  0.4353  0.0158
    2AIB      N   20  20.451  19.707  21.242 -0.4333  0.3619  0.0700
    2AIB     HN   21  20.443  19.792  21.293 -1.4044 -0.2396  0.9686
    2AIB     CA   22  20.379  19.699  21.118 -0.2417  0.0556 -0.6051
    2AIB    CB1   23  20.286  19.819  21.120  0.3013  0.2058 -0.3739
    2AIB   HB11   24  20.333  19.918  21.138 -1.6187  1.1968 -0.4219
    2AIB   HB12   25  20.215  19.801  21.204  1.8106  0.0447  0.9052
    2AIB   HB13   26  20.234  19.823  21.022  1.4187 -1.1170 -1.0648
    2AIB    CB2   27  20.296  19.571  21.113 -0.5713  0.2773 -0.5686
    2AIB   HB21   28  20.243  19.566  21.210  0.6740  2.1807  0.2774
    2AIB   HB22   29  20.371  19.491  21.129 -0.6930  0.5132  1.3472
    2AIB   HB23   30  20.229  19.566  21.025 -1.1438  0.6315 -0.1630
    2AIB      C   31  20.479  19.705  20.998  0.5260 -0.1428  0.6110
    2AIB      O   32  20.476  19.620  20.907 -0.7029 -0.1617 -0.1707
    3AIB      N   33  20.559  19.817  20.989  0.2769 -0.1023  0.3969
    3AIB     HN   34  20.554  19.886  21.060  0.8247  0.2623  0.0850
    3AIB     CA   35  20.659  19.836  20.887 -0.0049  0.4028 -0.0260
    3AIB    CB1   36  20.760  19.943  20.935  1.0892 -0.1860  0.4143
    3AIB   HB11   37  20.812  19.917  21.029 -0.1437 -0.1164  1.1395
    3AIB   HB12   38  20.710  20.042  20.951 -1.0939 -1.1394 -0.1093
    3AIB   HB13   39  20.836  19.962  20.856 -0.2136 -0.2736 -0.9004
    3AIB    CB2   40  20.599  19.904  20.771  0.3724 -1.0204  0.3180
    3AIB   HB21   41  20.554  20.001  20.799  1.0958 -0.8748  1.0370
    3AIB   HB22   42  20.512  19.846  20.731  1.1151 -1.1643 -1.1802
    3AIB   HB23   43  20.669  19.932  20.689  0.8045 -2.2310  0.2544
    3AIB      C   44  20.741  19.710  20.852 -0.2239 -0.3159 -0.0749
    3AIB      O   45  20.731  19.670  20.734  0.1470  0.5751  0.4782
    4AIB      N   46  20.806  19.646  20.956  0.5661  0.0755  0.7047
    4AIB     HN   47  20.803  19.687  21.047  1.2736  0.2723  0.6415
    4AIB     CA   48  20.889  19.528  20.947  0.2267 -0.4587  0.6343
    4AIB    CB1   49  20.916  19.491  21.097  0.3349 -0.1964 -0.5032
    4AIB   HB11   50  20.987  19.560  21.147 -0.7454 -0.3006  1.2767
    4AIB   HB12   51  20.958  19.388  21.100 -0.4556 -0.5092  1.3092
    4AIB   HB13   52  20.816  19.491  21.145  0.1739  1.4991 -0.7719
    4AIB    CB2   53  21.024  19.556  20.876 -0.1450  0.1778 -0.2911
    4AIB   HB21   54  21.075  19.636  20.934 -1.1083  0.2253  0.5129
    4AIB   HB22   55  21.011  19.590  20.771  1.2552 -1.1531 -0.9150
    4AIB   HB23   56  21.084  19.464  20.889 -0.4357  0.0151 -0.0981
    4AIB      C   57  20.807  19.412  20.878 -0.4120  0.5002 -0.0599
    4AIB      O   58  20.843  19.349  20.774 -0.0668 -0.4218 -0.4951
    5AIB      N   59  20.696  19.365  20.941 -0.0360 -0.4345  0.3929
    5AIB     HN   60  20.666  19.402  21.029 -1.0456  1.2384 -0.5945
    5AIB     CA   61  20.599  19.262  20.904 -0.8513 -0.1461 -0.3173
    5AIB    CB1   62  20.466  19.281  20.986 -0.2672  0.1376 -0.3109
    5AIB   HB11   63  20.390  19.204  20.960 -1.8684  0.7607  2.1788
    5AIB   HB12   64  20.420  19.371  20.940 -0.7279 -0.7748 -1.7013
    5AIB   HB13   65  20.482  19.293  21.095 -1.4233  2.3341 -0.3303
    5AIB    CB2   66  20.646  19.117  20.941 -0.0090 -0.3540  0.1742
    5AIB   HB21   67  20.729  19.093  20.871 -0.2822 -0.6951 -0.0342
    5AIB   HB22   68  20.568  19.042  20.915 -0.2150 -0.1409  0.1698
    5AIB   HB23   69  20.673  19.119  21.049  1.4171 -1.4605 -0.1367
    5AIB      C   70  20.565  19.274  20.747  0.3985  0.2711  0.0586
    5AIB      O   71  20.573  19.175  20.668  0.1872  0.0928  0.0591
    6AIB      N   72  20.531  19.395  20.696 -0.4430  0.1292 -0.0674
    6AIB     HN   73  20.541  19.481  20.746 -0.2881  1.4869 -2.2966
    6AIB     CA   74  20.500  19.429  20.561  0.2423  1.1578 -0.2456
    6AIB    CB1   75  20.474  19.578  20.548 -0.5946  0.9037 -0.2717
    6AIB   HB11   76  20.562  19.637  20.582  1.3904 -1.2557 -1.3382
    6AIB   HB12   77  20.401  19.608  20.626  1.5103  1.6240  1.5417
    6AIB   HB13   78  20.444  19.612  20.446 -0.2347  0.5163 -0.5094
    6AIB    CB2   79  20.373  19.354  20.512 -0.2166  0.3887  0.2852
    6AIB   HB21   80  20.310  19.402  20.435  0.8551  2.8868  0.8838
    6AIB   HB22   81  20.316  19.357  20.608 -2.0833  0.0672 -0.7642
    6AIB   HB23   82  20.396  19.250  20.479 -0.9195  0.1239  0.6097
    6AIB      C   83  20.618  19.409  20.466  0.1539  0.4537  0.3735
    6AIB      O   84  20.608  19.347  20.359 -0.5443  0.4663 -0.0050
    7AIB      N   85  20.735  19.467  20.498 -0.3559  0.2530 -0.1916
    7AIB     HN   86  20.743  19.518  20.583 -1.3284 -0.3349  0.2797
    7AIB     CA   87  20.856  19.433  20.427 -0.0346 -0.8847  0.2443
    7AIB    CB1   88  20.973  19.495  20.506  0.4964  0.3164 -0.5787
    7AIB   HB11   89  20.963  19.604  20.523 -0.1868 -0.0221  1.5737
    7AIB   HB12   90  21.062  19.488  20.440  0.0943 -0.6775 -1.0486
    7AIB   HB13   91  20.985  19.448  20.606  0.0557  2.1361  0.3712
    7AIB    CB2   92  20.864  19.499  20.285 -0.2427  0.2744  0.7629
    7AIB   HB21   93  20.965  19.483  20.241  0.0747  5.4001 -0.9203
    7AIB   HB22   94  20.846  19.607  20.302 -0.3430  0.2164  1.0543
    7AIB   HB23   95  20.784  19.462  20.217 -0.9418 -1.8994  2.6234
    7AIB      C   96  20.888  19.281  20.416  0.0312  0.1472 -0.5363
    7AIB      O   97  20.936  19.240  20.309 -0.5039  0.4432 -0.0018
    8AIB      N   98  20.870  19.194  20.518 -0.4479  0.3880 -0.4687
    8AIB     HN   99  20.858  19.227  20.611 -0.1932  1.7012 -0.8774
    8AIB     CA  100  20.907  19.064  20.518 -0.2234  0.2684 -0.4110
    8AIB    CB1  101  20.838  18.983  20.630  0.7346  0.1027  0.1101
    8AIB   HB11  102  20.885  19.015  20.725 -2.1528 -1.0910  2.1035
    8AIB   HB12  103  20.853  18.874  20.617 -2.5091 -0.3476 -0.9561
    8AIB   HB13  104  20.728  18.995  20.618  0.8506  0.2266 -0.9924
    8AIB    CB2  105  21.056  19.065  20.545 -0.7774 -0.1319  0.3358
    8AIB   HB21  106  21.086  19.121  20.637  0.7407  2.8850 -1.8218
    8AIB   HB22  107  21.109  19.117  20.462  0.5207 -1.5784  0.2168
    8AIB   HB23  108  21.087  18.959  20.546 -1.7065 -0.4899 -1.9160
    8AIB      C  109  20.863  18.975  20.396  0.0747 -0.1836 -0.3263
    8AIB      O  110  20.923  18.873  20.358  0.1508 -0.2310 -0.0010
    9AIB      N  111  20.753  19.018  20.335  0.1298  0.5271 -0.2280
    9AIB     HN  112  20.701  19.093  20.374 -2.2911  0.1030 -2.3372
    9AIB     CA  113  20.692  18.966  20.215 -0.7951 -0.6869  0.3334
    9AIB    CB1  114  20.565  19.050  20.184 -0.5535  0.8008 -0.3116
    9AIB   HB11  115  20.589  19.158  20.171  1.9797  0.7697  2.9195
    9AIB   HB12  116  20.502  19.052  20.275  0.6815  0.7554  0.5613
    9AIB   HB13  117  20.514  19.003  20.097 -0.3227 -0.7225  0.3628
    9AIB    CB2  118  20.654  18.816  20.228  0.0309  0.0543 -0.8178
    9AIB   HB21  119  20.735  18.747  20.258 -1.0800 -1.2352 -0.6898
    9AIB   HB22  120  20.606  18.774  20.137  1.4079 -0.2948 -1.4124
    9AIB   HB23  121  20.577  18.821  20.307  1.3008  0.1795  0.4364
    9AIB      C  122  20.778  18.975  20.088 -0.2746 -0.2241  0.4590
    9AIB      O  123  20.762  18.900  19.993  0.5948 -0.5185  0.6010
    9AIB     NT  124  20.878  19.071  20.087  0.1781  0.1583 -0.2206
    9AIB    HNT  125  20.888  19.129  20.168 -2.3116 -0.5722  0.7043
    9AIB    CAT  126  20.962  19.095  19.976 -0.1072 -0.4227  0.3879
    9AIB    HT1  127  20.899  19.112  19.886 -1.1706  1.2087  1.4067
    9AIB    HT2  128  21.021  19.003  19.954 -0.6719 -0.1744 -2.7173
    9AIB    HT3  129  21.035  19.179  19.979  0.6885 -0.9574 -1.6279
  42.09246  42.09246  42.09246
