Protein
   42
    1ACE   HH31    1   9.295  12.327  12.092  1.1193 -0.3578  2.1091
    1ACE    CH3    2   9.359  12.406  12.052 -0.1052 -0.4894 -0.2841
    1ACE   HH32    3   9.389  12.387  11.949 -1.1809  0.9175 -0.9010
    1ACE   HH33    4   9.452  12.413  12.109 -0.1111 -3.1370  0.1819
    1ACE      C    5   9.278  12.541  12.059  0.0284 -0.1984  0.1395
    1ACE      O    6   9.183  12.544  12.136 -0.0759 -0.5424 -0.0769
    2ALA      N    7   9.322  12.642  11.978  0.3181  0.1595  0.1946
    2ALA      H    8   9.376  12.620  11.896  1.4510  1.4048  0.5740
    2ALA     CA    9   9.265  12.773  11.975  0.4000 -0.5397 -0.5151
    2ALA     HA   10   9.240  12.800  12.078  3.5993  0.1128  0.2018
    2ALA     CB   11   9.381  12.866  11.944 -0.5222  0.6070  0.3373
    2ALA    HB1   12   9.472  12.835  11.995 -0.2323  0.0715 -0.4884
    2ALA    HB2   13   9.400  12.856  11.837 -0.5187 -3.1318  0.5734
    2ALA    HB3   14   9.358  12.969  11.970 -0.5699  0.5800  0.4025
    2ALA      C   15   9.139  12.780  11.891 -0.1692  0.7945 -0.2550
    2ALA      O   16   9.142  12.718  11.785 -0.5491 -0.3637 -0.0351
    3ALA      N   17   9.039  12.868  11.914 -0.3546  0.4699  0.1488
    3ALA      H   18   8.966  12.861  11.845  0.4376 -2.0966 -0.5151
    3ALA     CA   19   9.003  12.964  12.018 -0.0479 -0.5343 -0.6223
    3ALA     HA   20   9.062  13.052  11.994 -0.0915  0.4107  2.3253
    3ALA     CB   21   8.853  12.999  12.005 -0.1156 -0.0644 -0.0501
    3ALA    HB1   22   8.792  12.914  12.037 -1.1937  0.6834 -0.0623
    3ALA    HB2   23   8.831  13.078  12.077  1.4432  1.5473 -1.3069
    3ALA    HB3   24   8.823  13.025  11.904 -1.6878  0.1379  0.4365
    3ALA      C   25   9.039  12.917  12.160 -0.1682  0.9639  0.2412
    3ALA      O   26   9.101  12.999  12.238  0.2602  0.6974  0.0416
    4ALA      N   27   9.002  12.796  12.195 -0.6481  0.1869 -1.2985
    4ALA      H   28   8.971  12.732  12.124  1.3858 -1.6502 -0.6688
    4ALA     CA   29   8.988  12.738  12.328 -0.0009  0.4256 -0.1364
    4ALA     HA   30   9.083  12.692  12.354 -1.3982 -0.8527  3.3781
    4ALA     CB   31   8.943  12.843  12.430  0.5934 -0.6010 -1.3731
    4ALA    HB1   32   9.016  12.923  12.440  1.8677 -1.8927  0.3362
    4ALA    HB2   33   8.854  12.899  12.400  1.6363  0.8209 -1.9927
    4ALA    HB3   34   8.925  12.789  12.523  1.2395 -0.2468 -1.0348
    4ALA      C   35   8.875  12.629  12.322  0.4741 -0.4346 -0.1917
    4ALA      O   36   8.755  12.651  12.286 -0.5555 -0.4024 -0.5731
    5NME      N   37   8.917  12.502  12.343 -0.1109 -0.0301 -0.2358
    5NME      H   38   9.015  12.484  12.358 -0.8676 -4.0769  1.2844
    5NME    CH3   39   8.826  12.385  12.329 -0.2028 -0.1964 -0.3614
    5NME   HH31   40   8.724  12.413  12.302 -0.4831 -1.1051 -0.2773
    5NME   HH32   41   8.870  12.313  12.260 -0.0647  0.4882 -0.9837
    5NME   HH33   42   8.823  12.331  12.424  2.2049 -2.5949 -1.4832
  20.91516  20.91516  20.91516
