Protein
   42
    1ACE   HH31    1  15.775  12.047   5.757  1.1511 -0.7828  1.1014
    1ACE    CH3    2  15.786  11.968   5.683  0.5789  0.0301  0.1300
    1ACE   HH32    3  15.695  11.909   5.673  0.1956  0.6953 -0.4004
    1ACE   HH33    4  15.863  11.900   5.719 -0.2467 -1.0528 -0.1099
    1ACE      C    5  15.835  12.024   5.548  0.0729 -0.5327 -0.1623
    1ACE      O    6  15.871  12.140   5.533 -0.7740 -0.2566 -0.5159
    2ALA      N    7  15.819  11.943   5.443  0.8717 -0.3320 -0.1506
    2ALA      H    8  15.780  11.856   5.475 -1.4267  0.7853  0.2345
    2ALA     CA    9  15.883  11.954   5.311 -0.2971 -0.3300  0.8292
    2ALA     HA   10  15.848  12.045   5.263  0.1554  0.0822  1.2697
    2ALA     CB   11  16.036  11.967   5.332  0.0720 -0.2188 -0.9606
    2ALA    HB1   12  16.091  11.985   5.240  0.9121 -0.6458 -0.5615
    2ALA    HB2   13  16.057  12.056   5.390 -0.8576 -0.8757  0.4502
    2ALA    HB3   14  16.079  11.883   5.388  0.1558  0.4720  0.0342
    2ALA      C   15  15.860  11.835   5.214 -0.4337 -0.1755  0.1109
    2ALA      O   16  15.813  11.726   5.250  0.3932  0.1415  0.4095
    3ALA      N   17  15.901  11.860   5.091 -0.1205 -0.0043  0.8378
    3ALA      H   18  15.946  11.949   5.075 -0.3522  0.1687  1.1328
    3ALA     CA   19  15.890  11.764   4.974 -0.2789 -0.1848  0.1811
    3ALA     HA   20  15.940  11.823   4.898  0.4341  0.1894  0.9330
    3ALA     CB   21  15.975  11.638   4.991 -0.1657  0.2417 -0.6079
    3ALA    HB1   22  16.000  11.609   5.093 -1.8479 -1.5734 -0.6549
    3ALA    HB2   23  15.912  11.555   4.959 -1.1807  1.8541 -3.0202
    3ALA    HB3   24  16.067  11.641   4.933  0.8146  0.9370  0.9096
    3ALA      C   25  15.747  11.736   4.916  0.6931  0.5684 -0.0421
    3ALA      O   26  15.726  11.751   4.792  0.2207  0.2132 -0.5668
    4ALA      N   27  15.654  11.709   5.010  0.1020  0.3496  0.1988
    4ALA      H   28  15.683  11.698   5.106 -2.7034 -0.2842  1.0673
    4ALA     CA   29  15.513  11.687   4.986 -0.3415  0.4151  0.5679
    4ALA     HA   30  15.479  11.612   5.057 -0.3449  0.0421  0.1745
    4ALA     CB   31  15.442  11.818   5.014  0.6516  0.2430 -0.3305
    4ALA    HB1   32  15.336  11.800   5.033  0.9858 -0.1365  1.4236
    4ALA    HB2   33  15.484  11.851   5.109  1.8656 -0.2855 -0.6541
    4ALA    HB3   34  15.470  11.900   4.948  0.9317  1.5885  1.3758
    4ALA      C   35  15.472  11.628   4.849  0.1690 -0.0805  0.0395
    4ALA      O   36  15.358  11.662   4.806 -0.1713 -0.2151  0.3641
    5NME      N   37  15.544  11.532   4.789 -0.8975 -0.1370  0.0569
    5NME      H   38  15.630  11.496   4.829 -0.2900 -0.2415 -1.2746
    5NME    CH3   39  15.496  11.473   4.662  0.5818 -0.0496  0.7175
    5NME   HH31   40  15.438  11.383   4.681  0.0968 -0.4360 -2.0659
    5NME   HH32   41  15.419  11.540   4.624 -0.6510 -0.8900  1.6490
    5NME   HH33   42  15.571  11.451   4.586  0.3473 -0.7012  0.6711
  20.91516  20.91516  20.91516
