Protein
   42
    1ACE   HH31    1   9.068   9.715  11.514  1.9068 -0.3276  1.1707
    1ACE    CH3    2   9.131   9.664  11.441 -0.0208 -0.7895 -0.2608
    1ACE   HH32    3   9.201   9.601  11.497  0.7360  1.0746  1.0098
    1ACE   HH33    4   9.198   9.731  11.387  1.3410 -0.3701  1.8137
    1ACE      C    5   9.060   9.582  11.343  0.0223  0.0441 -0.9431
    1ACE      O    6   8.943   9.557  11.360  0.2095  0.2624 -0.1143
    2ALA      N    7   9.128   9.544  11.234  0.0692 -0.7789 -0.0172
    2ALA      H    8   9.226   9.565  11.223  0.4656 -1.6452  1.3469
    2ALA     CA    9   9.058   9.448  11.149  0.1879 -0.3301  0.3381
    2ALA     HA   10   8.980   9.399  11.207  1.0961  0.2651  2.1403
    2ALA     CB   11   9.000   9.523  11.026 -0.0295 -0.0627  0.1118
    2ALA    HB1   12   9.077   9.562  10.960  3.7121 -1.8814  2.9493
    2ALA    HB2   13   8.939   9.453  10.969 -0.8089  1.1952 -0.6334
    2ALA    HB3   14   8.936   9.608  11.049 -0.5598 -0.5355  0.3972
    2ALA      C   15   9.164   9.338  11.119  0.0092  0.3593  0.2367
    2ALA      O   16   9.204   9.265  11.208 -0.2105 -0.2436  0.7901
    3ALA      N   17   9.217   9.330  10.998 -0.2303 -0.7382  0.0345
    3ALA      H   18   9.182   9.394  10.928 -1.0762 -0.2177  0.8984
    3ALA     CA   19   9.342   9.255  10.972  0.3692  0.6410 -0.3032
    3ALA     HA   20   9.317   9.149  10.978 -1.5675  1.0875  0.0873
    3ALA     CB   21   9.386   9.274  10.828 -0.2746  0.2242  0.4452
    3ALA    HB1   22   9.381   9.378  10.797  2.1111  0.8904  2.0310
    3ALA    HB2   23   9.490   9.247  10.809 -0.7514 -0.8472 -0.7821
    3ALA    HB3   24   9.334   9.213  10.754 -0.5786 -1.8528  2.2648
    3ALA      C   25   9.452   9.285  11.074  0.3422  0.1974 -0.5631
    3ALA      O   26   9.469   9.399  11.114  0.5493  0.2722 -0.1545
    4ALA      N   27   9.533   9.187  11.110  0.7769  0.1765 -0.4419
    4ALA      H   28   9.515   9.100  11.063 -1.2785 -0.3139  1.1326
    4ALA     CA   29   9.646   9.189  11.209 -0.2513  0.3162 -0.4777
    4ALA     HA   30   9.713   9.270  11.178 -0.5353  0.4567 -0.7255
    4ALA     CB   31   9.597   9.227  11.349 -0.3091 -0.2042 -0.1367
    4ALA    HB1   32   9.535   9.147  11.389 -1.5839  0.4027 -0.8064
    4ALA    HB2   33   9.683   9.238  11.416  1.3495  1.8239 -2.3971
    4ALA    HB3   34   9.556   9.328  11.346  2.9009  1.2852  0.5776
    4ALA      C   35   9.718   9.052  11.206 -0.4060  0.0213 -0.3273
    4ALA      O   36   9.759   9.011  11.099 -0.0962  0.1583  0.3912
    5NME      N   37   9.712   8.977  11.320  0.1416 -0.4841  1.0378
    5NME      H   38   9.672   9.030  11.396 -1.6920  3.5432 -2.3192
    5NME    CH3   39   9.773   8.845  11.342 -0.0925  0.7499 -0.0843
    5NME   HH31   40   9.793   8.791  11.249 -0.6006 -0.2347  0.3644
    5NME   HH32   41   9.868   8.861  11.392  1.0751 -3.6565 -0.5110
    5NME   HH33   42   9.708   8.779  11.400  0.3242  0.3999 -0.0057
  20.91516  20.91516  20.91516
