Protein
   32
    1ACE   HH31    1   9.844  12.361  12.376 -1.0939 -0.9752 -1.2580
    1ACE    CH3    2   9.788  12.326  12.463  0.3012  0.6734  0.3866
    1ACE   HH32    3   9.848  12.275  12.538 -2.4956 -1.8241  1.1489
    1ACE   HH33    4   9.711  12.252  12.444  0.5734  0.5311 -0.1885
    1ACE      C    5   9.722  12.455  12.523  0.2552 -0.3045 -0.1347
    1ACE      O    6   9.601  12.477  12.531  0.0287 -0.4281 -0.1485
    2ALA      N    7   9.811  12.548  12.565  0.3098  0.2522 -0.3716
    2ALA      H    8   9.908  12.517  12.567 -0.0724 -1.3051 -2.7727
    2ALA     CA    9   9.780  12.674  12.614 -0.2167  0.1205  0.1647
    2ALA     HA   10   9.675  12.680  12.641 -0.2073 -3.4695  1.5445
    2ALA     CB   11   9.857  12.691  12.743  0.1243 -0.5259  0.0564
    2ALA    HB1   12   9.963  12.689  12.716  0.5780 -0.6596  1.7534
    2ALA    HB2   13   9.839  12.786  12.794  1.2409 -0.0071 -0.4799
    2ALA    HB3   14   9.839  12.606  12.809 -0.2196  0.4172  1.2169
    2ALA      C   15   9.817  12.783  12.510  0.9834  0.2909  0.1427
    2ALA      O   16   9.926  12.788  12.458  0.1236  0.3704  0.0500
    3ALA      N   17   9.717  12.871  12.494  0.2200  0.0235 -0.5512
    3ALA      H   18   9.634  12.845  12.545 -0.2250  3.1103  0.5280
    3ALA     CA   19   9.727  13.006  12.432 -0.6997 -0.0559  0.5178
    3ALA     HA   20   9.626  13.027  12.397 -0.1891 -0.3392 -1.2395
    3ALA     CB   21   9.769  13.104  12.544 -0.7522  0.1040 -0.0684
    3ALA    HB1   22   9.872  13.081  12.570 -0.9972  1.5724  2.5043
    3ALA    HB2   23   9.777  13.204  12.503 -2.0618  1.1671  2.0475
    3ALA    HB3   24   9.701  13.101  12.630 -1.6055  0.4419 -0.7050
    3ALA      C   25   9.822  13.013  12.303 -0.4554 -0.1288  0.1855
    3ALA      O   26   9.930  13.070  12.302  0.7567  0.0731 -1.4263
    4NME      N   27   9.765  12.962  12.192  0.0369  0.3721  0.1208
    4NME      H   28   9.673  12.924  12.210  0.8727 -1.4114  0.7941
    4NME    CH3   29   9.819  12.963  12.059 -0.3500 -0.2794  0.0602
    4NME   HH31   30   9.866  12.866  12.047 -0.9721 -0.9632  2.5976
    4NME   HH32   31   9.746  12.964  11.978  0.1924 -0.1189 -0.4336
    4NME   HH33   32   9.880  13.053  12.053 -1.1742  0.1901 -2.5816
  20.99041  20.99041  20.99041
