Protein
   42
    1ACE   HH31    1   9.594  10.891  14.688  1.5212  1.7250  0.4972
    1ACE    CH3    2   9.605  10.919  14.583  0.5825 -0.3130 -0.1928
    1ACE   HH32    3   9.681  10.857  14.536  0.2254 -1.5524  0.7866
    1ACE   HH33    4   9.616  11.027  14.578  0.0778 -0.3245 -1.7635
    1ACE      C    5   9.474  10.874  14.519  0.4668 -0.1471 -0.3836
    1ACE      O    6   9.419  10.770  14.555 -0.5267 -0.4128  0.1712
    2ALA      N    7   9.429  10.950  14.426  0.0912 -0.4544 -0.6483
    2ALA      H    8   9.494  11.019  14.392  0.9837 -0.2617  1.3574
    2ALA     CA    9   9.292  10.938  14.375 -0.0533  0.3320 -0.8020
    2ALA     HA   10   9.262  10.835  14.355  1.2624  0.2126 -2.3927
    2ALA     CB   11   9.201  10.990  14.487  0.2884 -0.1880 -0.2756
    2ALA    HB1   12   9.202  10.929  14.578 -1.3879  0.4103  0.1927
    2ALA    HB2   13   9.222  11.096  14.504 -1.4599  0.3902 -1.4856
    2ALA    HB3   14   9.104  10.996  14.436 -0.1995 -0.2164  0.6189
    2ALA      C   15   9.288  11.004  14.235  0.4786 -0.1680  0.7771
    2ALA      O   16   9.346  11.113  14.212  0.1037 -0.1566 -0.2031
    3ALA      N   17   9.215  10.937  14.137  0.1997 -0.3457 -0.3817
    3ALA      H   18   9.170  10.854  14.173  0.2165  0.8227  2.6222
    3ALA     CA   19   9.211  10.972  13.994 -0.4124  0.6995 -0.1381
    3ALA     HA   20   9.158  10.891  13.944  0.2907  0.6881 -0.8987
    3ALA     CB   21   9.133  11.105  13.975  0.0677  1.0659 -0.2329
    3ALA    HB1   22   9.201  11.182  14.011  0.0919  1.0226 -0.1886
    3ALA    HB2   23   9.114  11.108  13.867  2.8776 -0.1357 -0.8511
    3ALA    HB3   24   9.042  11.100  14.035  0.1236  1.5075 -0.0994
    3ALA      C   25   9.348  10.975  13.920  0.2144  0.0800 -0.5657
    3ALA      O   26   9.358  10.953  13.799 -0.7407 -0.5195  0.6545
    4ALA      N   27   9.463  10.987  13.989  0.5710  0.5502 -0.2512
    4ALA      H   28   9.465  11.026  14.083  0.0380 -1.2149  0.5486
    4ALA     CA   29   9.589  10.940  13.939  0.8852 -0.0891 -0.1601
    4ALA     HA   30   9.583  10.861  13.864  0.1944 -1.1630  1.0021
    4ALA     CB   31   9.662  11.062  13.874  0.3132 -0.0358  0.6873
    4ALA    HB1   32   9.666  11.141  13.948 -2.4692 -1.7548  2.9151
    4ALA    HB2   33   9.759  11.033  13.834 -0.0679 -0.4652  0.0637
    4ALA    HB3   34   9.598  11.102  13.796  0.9806 -1.2554 -0.5498
    4ALA      C   35   9.669  10.873  14.057  0.0513  0.4980 -1.0500
    4ALA      O   36   9.634  10.888  14.172 -0.3331 -0.0310 -0.3345
    5NME      N   37   9.769  10.795  14.022  0.0637 -0.1274 -0.3177
    5NME      H   38   9.812  10.811  13.932  2.1261  1.9078  0.9251
    5NME    CH3   39   9.856  10.714  14.107  0.0965  0.2100  0.2980
    5NME   HH31   40   9.901  10.632  14.051  0.5669 -0.5386  1.7193
    5NME   HH32   41   9.936  10.777  14.146 -0.1472  0.6082  0.1513
    5NME   HH33   42   9.803  10.677  14.195 -2.7515  0.9157 -0.9995
  20.91516  20.91516  20.91516
