Protein
   42
    1ACE   HH31    1   6.076  14.077  10.355  0.5596 -0.6029 -0.7305
    1ACE    CH3    2   5.983  14.023  10.339 -0.1135  0.3691 -0.1514
    1ACE   HH32    3   5.987  13.984  10.238 -0.8688 -1.5271  0.5202
    1ACE   HH33    4   5.899  14.090  10.357  1.4730  2.5568 -0.3790
    1ACE      C    5   5.993  13.909  10.443  0.0409 -0.3707 -0.0161
    1ACE      O    6   5.914  13.907  10.535  0.1043 -0.5896  0.5892
    2ALA      N    7   6.080  13.813  10.411  0.8756 -0.0708 -0.0019
    2ALA      H    8   6.148  13.827  10.338  0.8577  0.6356  0.0987
    2ALA     CA    9   6.114  13.699  10.494 -0.1436 -0.0961 -0.3615
    2ALA     HA   10   6.219  13.681  10.469  0.6466  2.9494  0.3533
    2ALA     CB   11   6.119  13.736  10.639 -0.3188  0.3105  0.3623
    2ALA    HB1   12   6.173  13.828  10.660  0.0863  0.6804 -2.0194
    2ALA    HB2   13   6.020  13.747  10.683 -1.0703  0.5198 -1.2989
    2ALA    HB3   14   6.174  13.657  10.691 -0.9486 -0.3802  0.0047
    2ALA      C   15   6.052  13.558  10.452 -0.1316 -0.2123 -0.2255
    2ALA      O   16   6.119  13.463  10.423 -0.5539 -0.1043 -0.2399
    3ALA      N   17   5.916  13.546  10.448  0.6186  0.1980  0.3460
    3ALA      H   18   5.899  13.447  10.440 -1.5739  0.5851 -0.3406
    3ALA     CA   19   5.795  13.631  10.478  0.0705  0.4754  0.2803
    3ALA     HA   20   5.802  13.733  10.441 -3.6733  0.4106 -1.0044
    3ALA     CB   21   5.676  13.579  10.394 -0.2698  0.4831 -0.0547
    3ALA    HB1   22   5.724  13.559  10.298  0.9666  2.8200 -0.0194
    3ALA    HB2   23   5.644  13.487  10.442  3.0699 -1.8001 -1.7417
    3ALA    HB3   24   5.603  13.659  10.397 -0.8475  0.1360 -2.5289
    3ALA      C   25   5.764  13.622  10.633 -0.1265 -0.4576  0.1848
    3ALA      O   26   5.763  13.518  10.704 -0.3188 -0.1047  0.8208
    4ALA      N   27   5.720  13.732  10.690 -0.2810 -0.1490 -0.2884
    4ALA      H   28   5.715  13.816  10.635 -0.2403  1.8208  2.4655
    4ALA     CA   29   5.662  13.739  10.821  0.1879  0.0759 -0.5486
    4ALA     HA   30   5.699  13.665  10.892  0.7287 -0.2633 -1.1788
    4ALA     CB   31   5.698  13.870  10.882  0.5462 -0.4841 -0.2180
    4ALA    HB1   32   5.657  13.947  10.817 -0.5067 -0.1815  0.7779
    4ALA    HB2   33   5.648  13.886  10.977 -0.6247 -1.4522 -0.6374
    4ALA    HB3   34   5.807  13.874  10.884  0.6859 -2.1626 -1.4412
    4ALA      C   35   5.512  13.714  10.812  0.0966  0.2501  0.4332
    4ALA      O   36   5.428  13.800  10.836  0.3075  0.2670 -0.4605
    5NME      N   37   5.471  13.594  10.764 -0.9632  0.0049  0.1521
    5NME      H   38   5.542  13.524  10.748  0.0098  1.0925 -0.4065
    5NME    CH3   39   5.326  13.572  10.730 -1.2662 -0.2088 -0.1022
    5NME   HH31   40   5.278  13.552  10.826  0.2168 -1.5786  0.3988
    5NME   HH32   41   5.282  13.660  10.684 -1.7551 -0.5549 -0.2982
    5NME   HH33   42   5.321  13.492  10.657 -1.4859 -1.3568  1.1271
  20.91516  20.91516  20.91516
