<<<<<<< HEAD
Protein
   42
    1ACE   HH31    1  11.240  13.928  13.252  1.1924 -2.7914  3.0326
    1ACE    CH3    2  11.341  13.968  13.249  0.1498  0.1543 -0.4072
    1ACE   HH32    3  11.393  13.906  13.323 -0.9527 -0.4373 -0.1087
    1ACE   HH33    4  11.345  14.075  13.269  0.6422  0.4856 -2.1381
    1ACE      C    5  11.409  13.939  13.116  0.3082 -0.0174  0.4898
    1ACE      O    6  11.346  13.887  13.027  0.2404 -0.0909 -0.5577
    2ALA      N    7  11.539  13.955  13.107  0.6101  1.2040 -0.5076
    2ALA      H    8  11.588  13.996  13.184  1.3618  0.1235 -0.3672
    2ALA     CA    9  11.631  13.924  13.002 -0.4758 -0.6197 -0.1665
    2ALA     HA   10  11.588  13.972  12.914  1.8553  0.6212 -0.7012
    2ALA     CB   11  11.757  14.008  13.025 -0.2269 -0.4159 -0.3297
    2ALA    HB1   12  11.726  14.108  13.056 -0.4113 -0.3162 -0.8203
    2ALA    HB2   13  11.820  13.955  13.096 -0.3427 -0.1117 -0.0042
    2ALA    HB3   14  11.823  14.021  12.939  1.1349 -1.0116  0.5921
    2ALA      C   15  11.663  13.780  12.971 -0.2333  0.3960 -0.0690
    2ALA      O   16  11.770  13.750  12.916 -0.0387 -0.0635  0.5237
    3ALA      N   17  11.564  13.694  13.007  0.3234  0.7045  0.6575
    3ALA      H   18  11.479  13.732  13.046 -0.3084 -1.4903  1.5504
    3ALA     CA   19  11.549  13.556  12.965  0.6098 -0.3515  0.3571
    3ALA     HA   20  11.442  13.543  12.982  0.4963 -0.9046 -0.7382
    3ALA     CB   21  11.581  13.533  12.813  0.2011  0.7453  0.3280
    3ALA    HB1   22  11.512  13.600  12.763 -0.7065  1.2243  2.1808
    3ALA    HB2   23  11.685  13.541  12.782  0.2228 -1.6899 -0.4987
    3ALA    HB3   24  11.551  13.432  12.784  1.4440  0.7561 -1.1270
    3ALA      C   25  11.626  13.462  13.048 -0.4672 -0.3513  0.8361
    3ALA      O   26  11.579  13.401  13.139  0.4486  0.1786 -0.2040
    4ALA      N   27  11.761  13.457  13.016  1.1717  0.2290 -0.1882
    4ALA      H   28  11.784  13.506  12.931 -0.6783 -1.5587 -1.8419
    4ALA     CA   29  11.867  13.400  13.103 -0.2282 -0.4875 -0.5414
    4ALA     HA   30  11.832  13.376  13.203  0.7332  0.4479  0.0418
    4ALA     CB   31  11.910  13.270  13.031  0.3347 -0.0050 -0.2950
    4ALA    HB1   32  11.987  13.208  13.078 -1.1448 -1.1321  0.7290
    4ALA    HB2   33  11.822  13.205  13.028 -1.3421  2.0109  1.5445
    4ALA    HB3   34  11.940  13.302  12.931 -2.2048  3.5573 -0.0990
    4ALA      C   35  11.989  13.486  13.110  0.4183 -0.2779 -0.2692
    4ALA      O   36  12.071  13.462  13.196 -0.4753  0.1259  0.2310
    5NME      N   37  12.004  13.590  13.026 -0.0858 -0.8654  0.8976
    5NME      H   38  11.928  13.613  12.965 -0.4016 -2.3169  0.6948
    5NME    CH3   39  12.132  13.661  13.012  0.0090 -0.0953  0.1456
    5NME   HH31   40  12.107  13.763  12.983 -0.5939 -0.9758 -2.8587
    5NME   HH32   41  12.192  13.658  13.102  1.6769 -1.0758 -0.9425
    5NME   HH33   42  12.193  13.627  12.928  0.3091  3.0638 -1.0128
  20.91516  20.91516  20.91516
=======
Protein
   42
    1ACE   HH31    1   7.791  18.391   4.294 -0.3009  1.1047  3.0416
    1ACE    CH3    2   7.860  18.474   4.276  0.0698  0.3895  0.7710
    1ACE   HH32    3   7.921  18.470   4.186  1.3298 -0.6422  1.6210
    1ACE   HH33    4   7.927  18.465   4.362  0.9539  0.4877  0.1151
    1ACE      C    5   7.770  18.595   4.288  0.2292 -0.3903  0.2063
    1ACE      O    6   7.649  18.584   4.298  0.1751 -0.1396 -0.0993
    2ALA      N    7   7.818  18.717   4.261 -0.1869 -0.0140 -0.3152
    2ALA      H    8   7.912  18.734   4.230  0.3716 -1.7485  0.3362
    2ALA     CA    9   7.739  18.843   4.271 -0.3176 -0.3988 -0.3125
    2ALA     HA   10   7.634  18.819   4.288 -0.6049  0.0962 -1.2834
    2ALA     CB   11   7.778  18.919   4.409  0.4677 -0.0621  0.6428
    2ALA    HB1   12   7.713  19.007   4.409  0.6933  0.1136  1.5706
    2ALA    HB2   13   7.747  18.857   4.493  2.9915 -0.1858  1.5549
    2ALA    HB3   14   7.884  18.942   4.412 -0.0202  2.6341 -0.2019
    2ALA      C   15   7.774  18.935   4.149  0.6754  0.5139  0.3308
    2ALA      O   16   7.883  18.941   4.101  0.0834  0.8237  0.4078
    3ALA      N   17   7.686  19.028   4.102 -0.4807 -0.0567  0.1495
    3ALA      H   18   7.735  19.086   4.034  1.7127 -1.0112  0.8224
    3ALA     CA   19   7.536  19.040   4.094 -0.0648  0.6363  0.4724
    3ALA     HA   20   7.511  19.131   4.148 -0.9383  1.3482 -1.0923
    3ALA     CB   21   7.508  19.046   3.938  0.1978  0.2534 -0.2406
    3ALA    HB1   22   7.400  19.050   3.924  0.0721 -2.0068 -0.1340
    3ALA    HB2   23   7.542  19.138   3.890 -0.8341  0.4990 -0.5294
    3ALA    HB3   24   7.552  18.961   3.886 -2.2967 -1.2022 -0.1620
    3ALA      C   25   7.449  18.926   4.150  0.2218  0.8683 -0.3770
    3ALA      O   26   7.373  18.953   4.243  0.2192 -0.2380 -0.4256
    4ALA      N   27   7.458  18.804   4.099 -0.8317  0.3504  0.2810
    4ALA      H   28   7.529  18.792   4.028 -1.2851 -2.1231  0.1560
    4ALA     CA   29   7.387  18.679   4.131  0.4885 -0.9935 -0.1328
    4ALA     HA   30   7.376  18.671   4.239 -1.8951  0.7327 -0.1899
    4ALA     CB   31   7.248  18.689   4.069  0.1640 -0.0808 -0.4831
    4ALA    HB1   32   7.195  18.778   4.105 -1.6659 -1.4783  0.4247
    4ALA    HB2   33   7.269  18.689   3.962  1.9870 -1.8720 -0.1709
    4ALA    HB3   34   7.199  18.597   4.100  0.5243 -0.3606 -0.7358
    4ALA      C   35   7.455  18.555   4.067 -0.4350  0.0117 -0.1867
    4ALA      O   36   7.521  18.563   3.960 -0.4699 -0.2546 -0.2817
    5NME      N   37   7.429  18.437   4.122 -0.3168 -0.2760  0.7357
    5NME      H   38   7.387  18.434   4.214 -0.9003 -1.3108  0.4593
    5NME    CH3   39   7.493  18.311   4.091 -0.8059 -0.1559  0.5029
    5NME   HH31   40   7.538  18.322   3.992  1.1802 -0.2444  1.3596
    5NME   HH32   41   7.572  18.292   4.164 -0.1286  0.6409 -0.0045
    5NME   HH33   42   7.428  18.223   4.082 -3.0755  1.3851  1.0701
  20.91516  20.91516  20.91516
>>>>>>> e505351e8895c44bcd67ad8436d05c0eaca14691
