Protein
   42
    1ACE   HH31    1   6.554   7.209   4.290 -0.2377 -0.3480 -1.7548
    1ACE    CH3    2   6.639   7.143   4.274 -0.1007 -0.8154  0.6108
    1ACE   HH32    3   6.608   7.064   4.206  0.5251 -0.6990  0.1746
    1ACE   HH33    4   6.682   7.101   4.365 -0.0035 -1.1048  0.4362
    1ACE      C    5   6.759   7.213   4.210  0.2051  0.8650 -0.4201
    1ACE      O    6   6.861   7.254   4.270 -0.6839 -0.2210  0.0454
    2ALA      N    7   6.759   7.207   4.082  0.0806  0.2149  0.0460
    2ALA      H    8   6.685   7.153   4.040  1.7117 -0.5674 -2.0726
    2ALA     CA    9   6.857   7.240   3.982 -0.6291 -0.4641 -0.7963
    2ALA     HA   10   6.915   7.149   3.965  0.0193  0.2448 -2.5826
    2ALA     CB   11   6.772   7.273   3.857 -0.9562 -0.7040 -0.7207
    2ALA    HB1   12   6.834   7.302   3.771 -1.0395  0.4346 -0.4259
    2ALA    HB2   13   6.703   7.193   3.832  0.4491 -1.2218 -3.2570
    2ALA    HB3   14   6.720   7.365   3.885  1.4727  0.7847 -0.7620
    2ALA      C   15   6.968   7.348   4.024  0.6010  0.9646  0.3286
    2ALA      O   16   7.091   7.329   4.007 -0.5182  0.8518 -0.5871
    3ALA      N   17   6.925   7.465   4.080  0.2862  0.3019 -0.1999
    3ALA      H   18   6.825   7.459   4.090  0.2642 -2.8344 -1.3187
    3ALA     CA   19   6.999   7.566   4.153  0.0132 -0.3503  0.3208
    3ALA     HA   20   7.034   7.633   4.075 -0.6669 -1.9271 -1.4125
    3ALA     CB   21   6.911   7.650   4.249  0.6355  0.3539  0.2619
    3ALA    HB1   22   6.879   7.591   4.335 -0.8697  0.4301 -0.2041
    3ALA    HB2   23   6.973   7.732   4.285  0.1668  1.2153 -0.8507
    3ALA    HB3   24   6.822   7.700   4.210  0.6023  0.3943  0.3880
    3ALA      C   25   7.125   7.527   4.223  0.0765  0.0136 -0.4275
    3ALA      O   26   7.224   7.600   4.226 -0.2417 -0.3388  0.4942
    4ALA      N   27   7.115   7.412   4.292 -0.2943  0.3630 -0.2551
    4ALA      H   28   7.020   7.382   4.306 -0.3210 -0.2134 -1.5411
    4ALA     CA   29   7.228   7.355   4.358  0.9010 -0.4140  0.1232
    4ALA     HA   30   7.324   7.383   4.313  0.2872  2.0649  0.2573
    4ALA     CB   31   7.211   7.392   4.502 -0.3947  0.1771 -0.3546
    4ALA    HB1   32   7.236   7.496   4.525  2.7544  0.1104 -2.9830
    4ALA    HB2   33   7.113   7.369   4.546 -0.2478  3.6043  2.1194
    4ALA    HB3   34   7.273   7.330   4.567  1.4837  1.1846 -1.1168
    4ALA      C   35   7.233   7.201   4.338  0.4347  0.5072  0.4876
    4ALA      O   36   7.258   7.128   4.427  0.0264  0.3939 -0.3582
    5NME      N   37   7.174   7.158   4.228  0.9908 -0.4400 -0.4815
    5NME      H   38   7.143   7.234   4.170  0.0241 -0.2749  0.2047
    5NME    CH3   39   7.144   7.017   4.197  0.6389  0.5085 -0.5177
    5NME   HH31   40   7.156   6.949   4.281 -0.0794  0.8724 -0.1139
    5NME   HH32   41   7.045   7.005   4.153  0.1914 -0.9779  0.8066
    5NME   HH33   42   7.212   6.972   4.123 -1.9400 -2.5258 -1.2769
  20.91516  20.91516  20.91516
