Protein
   32
    1ACE   HH31    1  10.168  15.761  12.430 -0.5227  1.3942  0.0913
    1ACE    CH3    2  10.269  15.773  12.470 -0.0073  0.2147 -0.7713
    1ACE   HH32    3  10.326  15.831  12.397 -1.0035  1.3489 -0.6707
    1ACE   HH33    4  10.322  15.679  12.485 -1.8508 -0.8092 -0.3056
    1ACE      C    5  10.250  15.857  12.594 -0.9815 -0.4098  0.7320
    1ACE      O    6  10.145  15.852  12.656  0.5316  0.1741  0.3044
    2ALA      N    7  10.351  15.943  12.612  0.1210 -0.0838  0.0547
    2ALA      H    8  10.418  15.952  12.537 -1.7742 -1.7553 -1.9757
    2ALA     CA    9  10.345  16.053  12.707 -0.4691  0.2632  0.1875
    2ALA     HA   10  10.299  16.018  12.800 -2.1185 -0.2891 -0.7856
    2ALA     CB   11  10.488  16.102  12.741 -0.1931  0.2607 -0.8390
    2ALA    HB1   12  10.531  16.158  12.657 -0.8594 -1.6425 -2.5377
    2ALA    HB2   13  10.497  16.162  12.831  3.0366 -2.0783  0.5604
    2ALA    HB3   14  10.548  16.015  12.764  0.2797  0.7069 -0.3405
    2ALA      C   15  10.255  16.172  12.664 -0.6548  0.3575 -0.1552
    2ALA      O   16  10.305  16.279  12.633 -0.0652 -0.1650 -0.3882
    3ALA      N   17  10.125  16.152  12.691 -0.0946 -0.2590 -0.2314
    3ALA      H   18  10.096  16.056  12.694 -1.6812  0.2285  1.1560
    3ALA     CA   19  10.020  16.249  12.672 -0.7114 -0.1387  0.4264
    3ALA     HA   20  10.057  16.351  12.668 -0.5789 -0.2194 -2.1704
    3ALA     CB   21   9.947  16.227  12.533  0.0067  1.0467 -0.5089
    3ALA    HB1   22   9.895  16.131  12.528 -3.5362  2.7988 -1.1052
    3ALA    HB2   23   9.868  16.302  12.530 -0.1443  0.8561 -1.6338
    3ALA    HB3   24  10.013  16.244  12.449 -0.3094  2.3565 -0.5058
    3ALA      C   25   9.922  16.250  12.791  0.3060  0.4290  0.3995
    3ALA      O   26   9.802  16.270  12.773 -0.4080  0.0403 -0.0792
    4NME      N   27   9.970  16.224  12.916  0.0726 -0.1584  0.4230
    4NME      H   28  10.064  16.190  12.929  0.4627  0.3022 -1.0127
    4NME    CH3   29   9.883  16.217  13.030  0.0917 -0.0186  0.0721
    4NME   HH31   30   9.828  16.311  13.039 -0.0151  0.0729 -1.2895
    4NME   HH32   31   9.812  16.135  13.023  0.7019 -0.4439 -1.6200
    4NME   HH33   32   9.950  16.199  13.115 -1.4344  3.2968  2.1939
  20.99041  20.99041  20.99041
