Protein
   42
    1ACE   HH31    1   8.082   8.276  10.312 -1.1798  0.9242 -2.5595
    1ACE    CH3    2   8.078   8.174  10.273 -0.2700  0.0061 -0.3745
    1ACE   HH32    3   8.065   8.100  10.353 -0.5576  0.6211  0.1661
    1ACE   HH33    4   8.161   8.148  10.207 -1.8391  0.3778 -2.5544
    1ACE      C    5   7.951   8.174  10.196 -0.2898 -0.5247  0.7670
    1ACE      O    6   7.945   8.240  10.092  0.4027  0.6525  0.4318
    2ALA      N    7   7.838   8.132  10.261 -0.1561  0.5169  1.0301
    2ALA      H    8   7.843   8.107  10.358  1.1506  2.8720  1.6619
    2ALA     CA    9   7.708   8.169  10.213  0.1729  0.7627 -0.8055
    2ALA     HA   10   7.703   8.165  10.104  0.5608 -0.0627 -0.7967
    2ALA     CB   11   7.602   8.065  10.253  0.2052  0.1924 -0.0906
    2ALA    HB1   12   7.535   8.049  10.169 -0.9393  2.2017  0.3578
    2ALA    HB2   13   7.649   7.974  10.289  0.5697  0.3470 -0.1594
    2ALA    HB3   14   7.547   8.103  10.340  1.5488 -1.3941  1.5079
    2ALA      C   15   7.665   8.320  10.249  0.7446  0.2814  0.1207
    2ALA      O   16   7.552   8.350  10.290  0.1282 -0.3064  0.1440
    3ALA      N   17   7.764   8.412  10.253  0.1964  0.0993  0.2441
    3ALA      H   18   7.848   8.393  10.200  0.5550  0.1166  0.7972
    3ALA     CA   19   7.782   8.529  10.337  0.3364  0.5630 -0.6308
    3ALA     HA   20   7.879   8.576  10.321  0.5311  0.5397  0.4518
    3ALA     CB   21   7.680   8.635  10.303 -0.1990  0.3130 -0.0253
    3ALA    HB1   22   7.579   8.596  10.296 -0.2856  0.8458 -3.8189
    3ALA    HB2   23   7.683   8.716  10.376  1.0506 -0.7809  1.1860
    3ALA    HB3   24   7.712   8.670  10.205  1.0390 -0.9903 -0.1221
    3ALA      C   25   7.784   8.483  10.480  0.2666  0.5332  0.0907
    3ALA      O   26   7.886   8.519  10.540 -0.0437 -0.3462  0.6901
    4ALA      N   27   7.686   8.416  10.540 -0.0217  0.2212 -0.1416
    4ALA      H   28   7.608   8.380  10.487 -0.0121  0.4980 -0.3475
    4ALA     CA   29   7.704   8.342  10.662 -0.2331  0.1956  0.3890
    4ALA     HA   30   7.703   8.411  10.747 -1.0852  0.8401 -0.1359
    4ALA     CB   31   7.573   8.268  10.685 -0.2385  0.0167  0.0365
    4ALA    HB1   32   7.565   8.188  10.611 -2.2858  0.4869 -0.3203
    4ALA    HB2   33   7.566   8.223  10.784 -1.5137 -1.0898 -0.5199
    4ALA    HB3   34   7.488   8.334  10.664 -0.7287  0.6961  3.6382
    4ALA      C   35   7.827   8.251  10.657  0.2683 -0.5763 -0.1760
    4ALA      O   36   7.846   8.187  10.551  0.0705  0.2216 -0.7831
    5NME      N   37   7.905   8.232  10.768 -0.3725 -0.0441  0.0512
    5NME      H   38   7.871   8.250  10.862  3.4825 -1.2670  1.8610
    5NME    CH3   39   8.030   8.146  10.766 -0.0650  0.1548  0.4565
    5NME   HH31   40   8.122   8.202  10.753  0.9328 -1.6420 -0.7568
    5NME   HH32   41   8.024   8.092  10.861 -1.2341  1.4706  1.1748
    5NME   HH33   42   8.012   8.080  10.681 -1.9070  0.5176  0.5286
  20.91516  20.91516  20.91516
