Protein
   42
    1ACE   HH31    1  10.764   9.888   9.783  1.0620 -0.2165  0.3203
    1ACE    CH3    2  10.762   9.992   9.815 -0.3716 -0.2035  0.2979
    1ACE   HH32    3  10.685  10.054   9.769 -1.8356 -1.3650  1.1219
    1ACE   HH33    4  10.866  10.021   9.799 -0.7825 -0.0167 -2.6531
    1ACE      C    5  10.733  10.001   9.961  0.1493 -0.6728 -0.4762
    1ACE      O    6  10.764  10.094  10.034  0.4892  0.2014  0.5643
    2ALA      N    7  10.652   9.911  10.017 -0.5687  0.6843  0.1082
    2ALA      H    8  10.622   9.837   9.954  3.0800  0.9117 -2.2229
    2ALA     CA    9  10.605   9.896  10.156  0.4788  0.2294 -0.1219
    2ALA     HA   10  10.568   9.793  10.161  0.1454  0.3815  0.9407
    2ALA     CB   11  10.705   9.905  10.271  0.4844 -0.1637 -0.4740
    2ALA    HB1   12  10.754  10.002  10.274 -2.0476  1.2736 -1.9477
    2ALA    HB2   13  10.659   9.888  10.368  1.4416 -1.5638 -0.2352
    2ALA    HB3   14  10.786   9.834  10.259 -0.7076 -1.9500  1.4025
    2ALA      C   15  10.487   9.990  10.174 -0.0186 -0.0052 -0.1074
    2ALA      O   16  10.403   9.972  10.266  0.1399 -0.2521  0.4802
    3ALA      N   17  10.486  10.100  10.098 -0.0369 -0.5111  0.6634
    3ALA      H   18  10.571  10.118  10.048  0.2125  1.2124  1.6214
    3ALA     CA   19  10.392  10.211  10.086 -0.0341  0.7200  0.6551
    3ALA     HA   20  10.376  10.226   9.979  0.8730 -0.5164  0.3181
    3ALA     CB   21  10.257  10.180  10.145 -0.3389  0.1703 -0.2701
    3ALA    HB1   22  10.180  10.244  10.101  0.9387  2.0253  0.1101
    3ALA    HB2   23  10.227  10.078  10.121 -0.4962  0.6101 -2.0675
    3ALA    HB3   24  10.271  10.185  10.253  1.3733 -0.1387 -0.4600
    3ALA      C   25  10.453  10.343  10.132 -0.2285 -0.8580 -1.0675
    3ALA      O   26  10.400  10.450  10.122  0.4286  0.8841 -0.1391
    4ALA      N   27  10.582  10.342  10.180 -0.1632  0.4531  0.3830
    4ALA      H   28  10.634  10.255  10.176  0.7698  0.9852  0.7045
    4ALA     CA   29  10.672  10.456  10.208 -0.4082  0.3060 -0.2199
    4ALA     HA   30  10.626  10.533  10.271 -0.3777 -0.1390  0.3545
    4ALA     CB   31  10.791  10.403  10.292  1.1041  0.0593 -0.2978
    4ALA    HB1   32  10.859  10.333  10.244  1.0473  0.7114 -1.3429
    4ALA    HB2   33  10.844  10.492  10.326 -0.3768  0.6322  0.6005
    4ALA    HB3   34  10.748  10.358  10.382 -2.1711  1.5308 -1.0149
    4ALA      C   35  10.710  10.546  10.087  0.1736 -1.0830  0.5001
    4ALA      O   36  10.813  10.612  10.083 -0.0375 -0.7195 -0.0455
    5NME      N   37  10.623  10.551   9.984 -0.1502  0.5204  0.3493
    5NME      H   38  10.536  10.504  10.001 -0.0422 -0.4845 -1.5532
    5NME    CH3   39  10.642  10.644   9.868 -0.1526  0.2572 -0.5801
    5NME   HH31   40  10.657  10.745   9.906  2.3904 -0.2405 -0.1189
    5NME   HH32   41  10.729  10.617   9.809  1.3037  0.2323  1.4772
    5NME   HH33   42  10.553  10.648   9.805 -0.3761  0.3696 -0.2683
  20.91516  20.91516  20.91516
