Protein
   32
    1ACE   HH31    1   9.447  11.207  10.115 -2.2069 -1.5853 -0.6077
    1ACE    CH3    2   9.427  11.217  10.222  0.0344  0.5579 -0.3153
    1ACE   HH32    3   9.432  11.321  10.256  0.6390  0.6688 -0.7266
    1ACE   HH33    4   9.507  11.171  10.278  1.0419  0.2315 -1.9300
    1ACE      C    5   9.291  11.165  10.258 -0.4355 -0.0738 -0.2365
    1ACE      O    6   9.270  11.098  10.359 -0.4073 -0.1770 -0.4091
    2ALA      N    7   9.199  11.207  10.175  0.1529  0.1773  0.1678
    2ALA      H    8   9.225  11.279  10.109 -1.3705  1.6409  1.0625
    2ALA     CA    9   9.055  11.180  10.201 -1.0065 -0.2954 -0.4331
    2ALA     HA   10   9.001  11.239  10.127  0.3551 -0.1092 -1.3064
    2ALA     CB   11   9.026  11.033  10.155 -0.6545 -0.5620 -0.6563
    2ALA    HB1   12   9.081  10.965  10.221 -1.2829 -0.5990 -0.1658
    2ALA    HB2   13   8.919  11.013  10.160 -0.9526  0.6699 -1.7614
    2ALA    HB3   14   9.073  11.021  10.057 -0.6927  0.6655 -0.8340
    2ALA      C   15   9.013  11.221  10.340  0.9943  0.2261  0.0324
    2ALA      O   16   9.053  11.321  10.397  0.2003  0.8751 -0.2477
    3ALA      N   17   8.916  11.148  10.405 -0.2002 -0.5490  0.1122
    3ALA      H   18   8.879  11.071  10.351 -0.1089 -1.8626  1.8334
    3ALA     CA   19   8.887  11.145  10.550 -0.6324 -0.4105 -0.2299
    3ALA     HA   20   8.851  11.246  10.569 -0.5707 -0.6070  1.0748
    3ALA     CB   21   8.773  11.046  10.569  0.1645  0.4789 -0.3047
    3ALA    HB1   22   8.727  11.064  10.666 -0.9068  0.1942 -0.7510
    3ALA    HB2   23   8.697  11.066  10.493  0.1985 -0.6627 -0.6483
    3ALA    HB3   24   8.798  10.940  10.566 -4.2667 -0.7245 -0.6985
    3ALA      C   25   9.003  11.128  10.652 -0.2094 -0.6656  0.0870
    3ALA      O   26   8.970  11.111  10.771  0.3492 -0.2598 -0.1616
    4NME      N   27   9.135  11.138  10.618 -0.3285 -0.1390  0.1050
    4NME      H   28   9.156  11.152  10.521 -0.9536  0.7581  0.0859
    4NME    CH3   29   9.249  11.130  10.705 -0.5197  0.2766 -0.0870
    4NME   HH31   30   9.242  11.196  10.792  0.0368 -1.0673  1.0073
    4NME   HH32   31   9.261  11.028  10.740  0.5233 -0.5128 -2.5896
    4NME   HH33   32   9.338  11.161  10.651 -2.3056  3.0788 -1.6447
  20.99041  20.99041  20.99041
