Protein
   32
    1ACE   HH31    1  11.622   9.049  12.881  1.1741  0.3054 -0.7533
    1ACE    CH3    2  11.634   8.941  12.871 -0.3433  0.0628 -0.2739
    1ACE   HH32    3  11.606   8.890  12.963 -0.9986 -1.5286 -1.3246
    1ACE   HH33    4  11.727   8.911  12.822 -1.1172 -0.6607 -1.3606
    1ACE      C    5  11.517   8.890  12.780 -0.0530  0.2906  0.0704
    1ACE      O    6  11.427   8.823  12.835 -0.6437 -0.6715  0.6616
    2ALA      N    7  11.514   8.909  12.644 -0.3827 -0.2663 -0.2111
    2ALA      H    8  11.591   8.961  12.607  0.1649 -0.7793  0.1825
    2ALA     CA    9  11.402   8.866  12.550 -0.0757 -0.2074 -0.6009
    2ALA     HA   10  11.311   8.919  12.577  0.2885 -0.0228  0.2928
    2ALA     CB   11  11.444   8.933  12.408  0.0408  0.7222 -0.7966
    2ALA    HB1   12  11.441   9.042  12.415 -0.4886  0.6052  1.1605
    2ALA    HB2   13  11.545   8.902  12.382  0.7371  0.6419  1.7914
    2ALA    HB3   14  11.378   8.894  12.330 -1.6900  1.7951  0.0714
    2ALA      C   15  11.376   8.714  12.542  0.3120 -0.2097  1.1475
    2ALA      O   16  11.264   8.678  12.509  0.4565 -0.5207 -0.1554
    3ALA      N   17  11.482   8.637  12.549  0.4826  0.9126  0.2053
    3ALA      H   18  11.567   8.673  12.590  1.7818  1.5538 -2.7651
    3ALA     CA   19  11.483   8.489  12.532  0.4424 -0.1543  0.0527
    3ALA     HA   20  11.384   8.449  12.556  0.2378 -0.4658 -1.2395
    3ALA     CB   21  11.508   8.457  12.390  0.7158 -0.3221  0.2787
    3ALA    HB1   22  11.413   8.452  12.338  1.1330 -0.2421 -0.5091
    3ALA    HB2   23  11.567   8.536  12.344 -1.4786  0.3001 -1.6250
    3ALA    HB3   24  11.544   8.355  12.377  1.3017 -0.6466  3.6812
    3ALA      C   25  11.585   8.432  12.634  0.5401 -0.2555 -0.0233
    3ALA      O   26  11.695   8.486  12.637 -0.0017 -0.2935 -0.3927
    4NME      N   27  11.545   8.325  12.710 -0.0594 -0.0996  0.1938
    4NME      H   28  11.450   8.293  12.707 -0.0142 -0.4752 -3.5985
    4NME    CH3   29  11.620   8.265  12.808 -0.3558  0.1764  0.3457
    4NME   HH31   30  11.565   8.245  12.900  2.0751 -0.2561  1.7854
    4NME   HH32   31  11.657   8.169  12.775  2.3957  1.4989 -0.6607
    4NME   HH33   32  11.701   8.328  12.846  1.3779 -1.5610 -0.3434
  20.99041  20.99041  20.99041
