Protein
   42
    1ACE   HH31    1   9.200  13.223  15.328  1.5664  0.2880  0.7752
    1ACE    CH3    2   9.193  13.133  15.389 -0.5855 -0.6068 -0.6667
    1ACE   HH32    3   9.279  13.067  15.378  2.7872  3.3847 -0.7542
    1ACE   HH33    4   9.096  13.088  15.370 -1.0059  0.4397 -1.1496
    1ACE      C    5   9.208  13.167  15.536  0.4852  0.0407 -0.0610
    1ACE      O    6   9.105  13.178  15.601  0.2655 -0.6972 -0.4397
    2ALA      N    7   9.330  13.194  15.588 -0.4213  0.1016 -0.7749
    2ALA      H    8   9.407  13.169  15.528 -0.7614  0.0928 -1.2073
    2ALA     CA    9   9.366  13.240  15.726  0.2176 -0.0933 -0.0516
    2ALA     HA   10   9.313  13.173  15.794  1.5937 -1.1935 -0.0256
    2ALA     CB   11   9.508  13.201  15.760 -0.3031 -0.2139 -0.4522
    2ALA    HB1   12   9.573  13.243  15.683  1.2296  1.6989  1.7636
    2ALA    HB2   13   9.546  13.248  15.850 -1.4493  1.2799 -0.7167
    2ALA    HB3   14   9.518  13.094  15.776  0.5204 -0.1808 -0.7096
    2ALA      C   15   9.324  13.391  15.755 -0.1431  0.6325 -0.0710
    2ALA      O   16   9.415  13.474  15.779  0.0848  0.1140 -0.3351
    3ALA      N   17   9.195  13.426  15.734 -0.9070  0.3726 -0.1891
    3ALA      H   18   9.125  13.356  15.715 -2.0362  1.2118  0.6510
    3ALA     CA   19   9.149  13.558  15.705  0.1528 -0.7003  0.2202
    3ALA     HA   20   9.046  13.549  15.672  0.2317  1.8399 -1.0177
    3ALA     CB   21   9.139  13.653  15.830 -0.5028  0.2621  0.4732
    3ALA    HB1   22   9.196  13.742  15.801  0.6263 -1.2233 -2.1290
    3ALA    HB2   23   9.033  13.672  15.844 -0.8925 -0.3268 -1.4218
    3ALA    HB3   24   9.173  13.597  15.917 -0.4200 -0.3306  0.0645
    3ALA      C   25   9.220  13.624  15.584  0.1126 -0.1344 -0.6253
    3ALA      O   26   9.307  13.566  15.526 -0.8702 -0.1305  0.2350
    4ALA      N   27   9.164  13.746  15.546 -0.0971  0.2763  0.0611
    4ALA      H   28   9.075  13.773  15.585 -1.5991 -2.4618 -1.1170
    4ALA     CA   29   9.209  13.832  15.437  0.1226  0.3021  0.6304
    4ALA     HA   30   9.148  13.922  15.431  1.3427  1.0660 -2.6790
    4ALA     CB   31   9.343  13.894  15.463 -0.2115 -0.3020  0.8585
    4ALA    HB1   32   9.351  13.913  15.570 -1.0895  0.8925  0.7418
    4ALA    HB2   33   9.417  13.822  15.430 -2.5464 -0.7135 -4.4830
    4ALA    HB3   34   9.365  13.984  15.405  1.4088 -1.4096 -0.3497
    4ALA      C   35   9.197  13.771  15.299 -0.2485  0.4735  0.1567
    4ALA      O   36   9.145  13.841  15.212 -0.1442 -0.1796 -0.1137
    5NME      N   37   9.234  13.644  15.277 -0.5136 -0.5687  0.2991
    5NME      H   38   9.277  13.595  15.354 -0.7491 -1.0486  0.1279
    5NME    CH3   39   9.191  13.577  15.152 -0.5060 -0.3501  0.6749
    5NME   HH31   40   9.082  13.566  15.154 -0.6755  0.9964  0.7491
    5NME   HH32   41   9.212  13.644  15.069  0.2412 -1.0612  0.2789
    5NME   HH33   42   9.238  13.480  15.145  0.1284  0.0556 -0.9146
  20.91516  20.91516  20.91516
