Protein
   32
    1ACE   HH31    1  10.771   8.388  16.047  1.4389  1.1810 -4.1896
    1ACE    CH3    2  10.772   8.281  16.027 -0.5147  0.1211  0.1754
    1ACE   HH32    3  10.772   8.271  15.919 -1.8225 -0.3693  0.2028
    1ACE   HH33    4  10.699   8.219  16.078  0.1926 -0.8109  0.0872
    1ACE      C    5  10.908   8.241  16.081  0.8994 -0.2162  1.0522
    1ACE      O    6  10.973   8.312  16.157  0.6731 -0.5513  0.4070
    2ALA      N    7  10.964   8.128  16.034  0.4706  0.4230  0.1690
    2ALA      H    8  10.911   8.071  15.968  0.0198 -0.2714  1.1095
    2ALA     CA    9  11.079   8.061  16.077  0.3293  0.6414  0.2386
    2ALA     HA   10  11.165   8.127  16.087  1.6482 -0.3382 -3.3831
    2ALA     CB   11  11.057   8.007  16.217  0.1354 -0.4954  0.5513
    2ALA    HB1   12  11.138   7.942  16.250 -0.4906 -2.0475 -0.7801
    2ALA    HB2   13  11.043   8.085  16.291 -0.9864 -0.4289  0.2863
    2ALA    HB3   14  10.969   7.942  16.212  0.8040 -1.3251 -1.3073
    2ALA      C   15  11.115   7.956  15.976  0.2455 -0.2972 -0.0259
    2ALA      O   16  11.029   7.878  15.937 -0.0781  0.1380 -0.4515
    3ALA      N   17  11.239   7.959  15.922 -0.1294 -0.0593 -0.3965
    3ALA      H   18  11.303   8.031  15.951 -1.0151  0.8754 -0.6884
    3ALA     CA   19  11.290   7.855  15.831 -1.2349 -0.3637  0.2396
    3ALA     HA   20  11.214   7.828  15.758 -0.9623 -2.5681  0.6932
    3ALA     CB   21  11.412   7.909  15.754 -0.4014 -0.2094  0.3394
    3ALA    HB1   22  11.490   7.935  15.826  1.0022 -0.5713 -1.0083
    3ALA    HB2   23  11.474   7.830  15.711 -0.6719  0.0753 -0.5795
    3ALA    HB3   24  11.373   7.980  15.681  0.8532  0.9273  0.7372
    3ALA      C   25  11.317   7.714  15.883 -1.1533 -0.5346 -0.4382
    3ALA      O   26  11.275   7.619  15.824  0.2908 -0.4452  0.5036
    4NME      N   27  11.387   7.696  15.994 -0.4489 -0.0659  0.1584
    4NME      H   28  11.416   7.777  16.048 -0.1601  0.8561 -1.3134
    4NME    CH3   29  11.402   7.565  16.055 -0.0046 -0.2683 -0.3430
    4NME   HH31   30  11.299   7.538  16.076 -0.2489  0.5070 -0.4827
    4NME   HH32   31  11.434   7.490  15.983 -1.9987 -0.0034 -1.5609
    4NME   HH33   32  11.459   7.561  16.148 -0.4015  0.1121 -0.0805
  20.99041  20.99041  20.99041
