Protein
   32
    1ACE   HH31    1   6.970  13.636   5.829 -0.7405 -2.1555 -2.2529
    1ACE    CH3    2   7.058  13.574   5.839  0.3986 -0.3310  0.2532
    1ACE   HH32    3   7.150  13.631   5.827  0.9249 -1.1685  0.1954
    1ACE   HH33    4   7.060  13.498   5.761  1.3321 -2.2936  2.1063
    1ACE      C    5   7.059  13.489   5.966 -0.6442 -0.1636  0.1744
    1ACE      O    6   7.155  13.489   6.038 -0.1360 -0.7097  0.2420
    2ALA      N    7   6.957  13.400   5.972 -0.4194  0.7289 -0.0318
    2ALA      H    8   6.876  13.412   5.913 -0.4085 -1.2018 -0.5267
    2ALA     CA    9   6.943  13.305   6.075 -0.4171  0.1748  0.7593
    2ALA     HA   10   6.837  13.279   6.067 -0.3380  0.3683 -1.2990
    2ALA     CB   11   7.019  13.179   6.023 -0.0069 -0.2481  0.1911
    2ALA    HB1   12   6.971  13.142   5.933  1.5893 -1.3059 -0.2562
    2ALA    HB2   13   7.123  13.203   6.003 -0.2588  2.9126  1.9745
    2ALA    HB3   14   7.012  13.098   6.095  1.6390 -1.6721 -1.1547
    2ALA      C   15   6.969  13.364   6.216  0.0584 -0.4297  0.1384
    2ALA      O   16   6.900  13.461   6.256 -0.2875  0.0417 -0.2481
    3ALA      N   17   7.052  13.300   6.301 -1.2044 -0.9962  0.1233
    3ALA      H   18   7.116  13.235   6.259 -1.6968 -1.0766 -0.5162
    3ALA     CA   19   7.085  13.347   6.436 -0.1693  0.6962  0.2630
    3ALA     HA   20   6.994  13.370   6.491 -0.0111  1.0883  0.3620
    3ALA     CB   21   7.150  13.229   6.503 -0.1623 -0.0690  0.4717
    3ALA    HB1   22   7.157  13.236   6.612  0.3970 -0.8348  0.4960
    3ALA    HB2   23   7.088  13.144   6.474  1.3074 -0.7614 -0.8355
    3ALA    HB3   24   7.253  13.217   6.469 -0.7480 -0.7091 -1.2119
    3ALA      C   25   7.169  13.476   6.448 -0.1116  0.3689 -0.3958
    3ALA      O   26   7.213  13.505   6.559 -0.1122  0.4736  0.2326
    4NME      N   27   7.187  13.557   6.340 -0.6325  0.1442 -0.6820
    4NME      H   28   7.147  13.531   6.251  0.7437  0.5489 -1.4573
    4NME    CH3   29   7.272  13.678   6.335 -0.0903  0.1772 -0.2684
    4NME   HH31   30   7.215  13.748   6.396 -1.6714 -2.7893  1.8838
    4NME   HH32   31   7.365  13.659   6.389 -0.0883  1.1250  0.0831
    4NME   HH33   32   7.299  13.713   6.235  3.1487  1.2877  0.8402
  20.99041  20.99041  20.99041
