Protein
   42
    1ACE   HH31    1  12.545   6.503  13.163  0.1893  2.8333 -0.1556
    1ACE    CH3    2  12.595   6.501  13.260  0.7862 -0.3546 -0.4206
    1ACE   HH32    3  12.539   6.565  13.327  1.9130  0.9871 -0.7036
    1ACE   HH33    4  12.697   6.538  13.245  0.8687 -0.3259  0.1702
    1ACE      C    5  12.597   6.359  13.321 -0.3158 -0.0754  0.6370
    1ACE      O    6  12.551   6.334  13.431 -0.0587  0.2182  0.1511
    2ALA      N    7  12.651   6.269  13.242 -0.0948 -0.0243  0.0495
    2ALA      H    8  12.695   6.307  13.160  1.9545 -1.1845  0.5216
    2ALA     CA    9  12.662   6.121  13.272 -0.3015  0.0786  0.1955
    2ALA     HA   10  12.614   6.095  13.367  1.2664 -0.2944  0.9201
    2ALA     CB   11  12.590   6.044  13.166 -0.8121  0.7081 -0.1391
    2ALA    HB1   12  12.494   6.089  13.140 -1.2885  0.0649  0.4314
    2ALA    HB2   13  12.652   6.028  13.078  1.0371 -1.7375  1.4712
    2ALA    HB3   14  12.565   5.942  13.196 -2.0457 -0.5795 -4.7032
    2ALA      C   15  12.806   6.091  13.295 -0.2747 -0.2250 -0.1572
    2ALA      O   16  12.874   6.060  13.199  0.1746  0.3863 -0.5423
    3ALA      N   17  12.863   6.094  13.418  0.2576 -0.4405 -0.1944
    3ALA      H   18  12.963   6.082  13.419  0.6156  1.7431 -2.0855
    3ALA     CA   19  12.804   6.136  13.549 -0.0463  0.0819 -0.6282
    3ALA     HA   20  12.696   6.138  13.536  0.0172 -1.5819 -1.8027
    3ALA     CB   21  12.848   6.026  13.653 -0.2911 -0.5614 -0.0876
    3ALA    HB1   22  12.778   5.943  13.644  0.1547 -0.8522 -0.9735
    3ALA    HB2   23  12.942   5.982  13.620  0.6760  1.8061 -0.7480
    3ALA    HB3   24  12.860   6.068  13.753 -0.5788 -0.6762 -0.0007
    3ALA      C   25  12.841   6.284  13.591 -0.0433 -0.5980 -0.7127
    3ALA      O   26  12.936   6.346  13.536  0.3161  0.4647 -0.8990
    4ALA      N   27  12.760   6.329  13.691 -0.4714  0.5723  0.5954
    4ALA      H   28  12.689   6.266  13.725 -2.5413  2.4849 -0.0313
    4ALA     CA   29  12.765   6.461  13.755 -0.4874 -1.3995  0.7159
    4ALA     HA   30  12.866   6.493  13.779 -0.4185 -1.6225  0.7129
    4ALA     CB   31  12.718   6.568  13.653 -0.2078  0.4994 -0.2600
    4ALA    HB1   32  12.724   6.664  13.704 -0.2793  0.5102 -0.2701
    4ALA    HB2   33  12.784   6.575  13.567  1.6990  0.4296  1.1515
    4ALA    HB3   34  12.618   6.536  13.623  0.0225 -1.3041  0.7717
    4ALA      C   35  12.692   6.464  13.889  0.0701 -0.1590  0.3582
    4ALA      O   36  12.609   6.380  13.926  0.5177  0.1565 -0.3763
    5NME      N   37  12.723   6.565  13.968 -0.3503 -0.9649  0.0275
    5NME      H   38  12.774   6.642  13.928 -1.2710 -1.0109 -1.2946
    5NME    CH3   39  12.655   6.580  14.099  0.1942  0.9353 -0.0204
    5NME   HH31   40  12.713   6.536  14.180 -1.4055 -0.7323  0.2996
    5NME   HH32   41  12.641   6.687  14.118  0.4478  0.9786 -0.0515
    5NME   HH33   42  12.553   6.543  14.104 -0.1397  1.5842 -1.5074
  20.91516  20.91516  20.91516
