Protein
   32
    1ACE   HH31    1  13.848   9.050  11.568 -1.5299 -2.3575 -0.9486
    1ACE    CH3    2  13.905   8.975  11.622  0.6443 -0.1065  0.0195
    1ACE   HH32    3  13.832   8.914  11.674  0.2826  0.9773  0.8217
    1ACE   HH33    4  13.986   9.018  11.682  0.6099 -0.1895  0.1238
    1ACE      C    5  13.966   8.888  11.509  0.3653  0.1000  0.1333
    1ACE      O    6  13.896   8.798  11.455 -0.3386  0.1246  0.5122
    2ALA      N    7  14.075   8.931  11.455 -0.3344  0.0133 -0.2243
    2ALA      H    8  14.116   9.018  11.485  1.5178 -1.1784  0.8996
    2ALA     CA    9  14.151   8.856  11.353  0.1922 -0.3441  0.1050
    2ALA     HA   10  14.098   8.765  11.325 -0.9412  0.6613 -1.1846
    2ALA     CB   11  14.164   8.935  11.219 -0.4582 -0.0493 -0.1524
    2ALA    HB1   12  14.193   9.037  11.243 -0.8587  0.1317 -0.4249
    2ALA    HB2   13  14.243   8.883  11.166  1.7248 -0.3559  3.0599
    2ALA    HB3   14  14.066   8.940  11.170 -0.9030  2.3490  0.8071
    2ALA      C   15  14.289   8.825  11.403 -0.9589 -0.7808  0.0341
    2ALA      O   16  14.352   8.911  11.467  0.1702  0.1458  0.5173
    3ALA      N   17  14.328   8.702  11.365  0.3201 -1.0242 -0.1665
    3ALA      H   18  14.275   8.645  11.301  1.0044 -1.8324 -0.0321
    3ALA     CA   19  14.459   8.664  11.388  0.2887 -0.3562 -0.2661
    3ALA     HA   20  14.509   8.731  11.458 -1.1774  1.7405 -1.1238
    3ALA     CB   21  14.456   8.526  11.455  0.5221  0.1834  0.1280
    3ALA    HB1   22  14.369   8.466  11.430 -0.4274  1.1372  1.0939
    3ALA    HB2   23  14.550   8.475  11.437 -0.7144 -1.5608 -1.9021
    3ALA    HB3   24  14.459   8.542  11.562  0.8683  1.3400 -0.0330
    3ALA      C   25  14.536   8.650  11.259  0.0602  0.3217  0.2848
    3ALA      O   26  14.473   8.641  11.155  0.2881 -0.6482 -0.0566
    4NME      N   27  14.668   8.642  11.265 -0.0906  0.2665 -0.4890
    4NME      H   28  14.707   8.663  11.356 -0.2384 -0.9391 -0.1203
    4NME    CH3   29  14.752   8.632  11.144 -0.5721 -0.6065  0.0729
    4NME   HH31   30  14.852   8.604  11.176 -0.2798 -0.7001 -0.8868
    4NME   HH32   31  14.710   8.561  11.073  1.5326 -0.7472 -1.1101
    4NME   HH33   32  14.764   8.725  11.089  0.7537 -0.6593  0.2617
  20.99041  20.99041  20.99041
