Protein
   42
    1ACE   HH31    1   7.989  13.731   8.475 -1.6140 -0.6963  1.1214
    1ACE    CH3    2   8.031  13.641   8.519  0.4685 -0.1677  0.4029
    1ACE   HH32    3   7.949  13.584   8.564 -0.2033  1.7572  1.7469
    1ACE   HH33    4   8.099  13.674   8.598 -0.3049  1.9661  0.2340
    1ACE      C    5   8.108  13.563   8.416 -0.3244  0.9408 -0.5042
    1ACE      O    6   8.090  13.575   8.294 -0.2947 -0.3089  0.1494
    2ALA      N    7   8.195  13.473   8.468 -0.1202  0.2597 -0.5686
    2ALA      H    8   8.226  13.481   8.564  0.1609  2.0772 -0.7861
    2ALA     CA    9   8.287  13.406   8.385  0.5008  0.7033 -0.8395
    2ALA     HA   10   8.278  13.439   8.282 -2.2169  0.4257 -0.7634
    2ALA     CB   11   8.428  13.443   8.431  0.3562  0.1309 -0.3637
    2ALA    HB1   12   8.504  13.400   8.366  1.2023 -1.2535  1.4366
    2ALA    HB2   13   8.427  13.552   8.425 -0.1702  0.1043 -0.8604
    2ALA    HB3   14   8.442  13.402   8.531 -0.7760  0.7895  0.0776
    2ALA      C   15   8.261  13.253   8.385 -0.3698  0.2996  0.1636
    2ALA      O   16   8.277  13.196   8.489 -0.4246  0.0159  0.2658
    3ALA      N   17   8.235  13.185   8.272  0.1408  0.1450 -0.7307
    3ALA      H   18   8.231  13.086   8.291  2.4981  0.2395  0.5106
    3ALA     CA   19   8.243  13.231   8.133  0.0076  0.4440  0.5290
    3ALA     HA   20   8.330  13.297   8.128  0.2281  0.0769 -1.7319
    3ALA     CB   21   8.283  13.126   8.030  0.4464 -0.0502  0.9601
    3ALA    HB1   22   8.202  13.062   7.994  0.1909  1.1114 -0.6189
    3ALA    HB2   23   8.306  13.186   7.942 -2.7769  1.9580  1.3539
    3ALA    HB3   24   8.374  13.068   8.051  0.7515  0.0398 -0.0359
    3ALA      C   25   8.117  13.307   8.087 -0.0962  0.8601  0.5193
    3ALA      O   26   8.123  13.394   7.998 -0.0987  0.1799 -0.2143
    4ALA      N   27   8.000  13.272   8.138 -0.3584 -0.2913  0.0741
    4ALA      H   28   7.997  13.192   8.200  1.4022 -0.5830 -0.1504
    4ALA     CA   29   7.882  13.355   8.137 -0.2790 -0.1982  0.2465
    4ALA     HA   30   7.915  13.455   8.110  1.4350 -0.8440 -0.2456
    4ALA     CB   31   7.790  13.294   8.034  0.4944 -0.2722  0.1282
    4ALA    HB1   32   7.844  13.296   7.939  1.3804  4.3896  0.4793
    4ALA    HB2   33   7.770  13.189   8.053  0.9818 -0.2189  1.0011
    4ALA    HB3   34   7.700  13.353   8.017  1.3159  0.5094 -1.6796
    4ALA      C   35   7.820  13.354   8.281  0.1888  0.4240  0.0449
    4ALA      O   36   7.860  13.272   8.365  0.1496  0.3470 -0.2039
    5NME      N   37   7.703  13.424   8.295 -0.2597 -0.1575  0.1428
    5NME      H   38   7.680  13.493   8.225  2.1619  0.8563  0.2704
    5NME    CH3   39   7.600  13.396   8.393  0.7333 -0.0924  0.1386
    5NME   HH31   40   7.546  13.302   8.379 -1.7144  1.0048  1.6119
    5NME   HH32   41   7.652  13.404   8.488 -1.7432  1.7366  1.4356
    5NME   HH33   42   7.525  13.475   8.393  2.2034  1.3529  0.1472
  20.91516  20.91516  20.91516
