Protein
   32
    1ACE   HH31    1  10.506   9.726   9.702  2.5317  1.0629 -2.1067
    1ACE    CH3    2  10.591   9.705   9.767  0.7292 -0.0892  0.0026
    1ACE   HH32    3  10.559   9.661   9.861 -0.1180  1.3698  0.4331
    1ACE   HH33    4  10.642   9.792   9.807  0.3265  0.4357 -0.6115
    1ACE      C    5  10.693   9.629   9.685 -0.3246  0.2641  0.3625
    1ACE      O    6  10.697   9.506   9.699 -0.0393 -0.7741 -0.4613
    2ALA      N    7  10.767   9.700   9.591 -0.2264  0.2039  0.0270
    2ALA      H    8  10.755   9.800   9.599 -1.7838  0.1921 -1.5517
    2ALA     CA    9  10.866   9.638   9.503  0.4625 -0.1123  0.3232
    2ALA     HA   10  10.850   9.532   9.485  2.1143 -0.2906 -0.3832
    2ALA     CB   11  10.877   9.705   9.362 -0.4265  0.3355 -0.4163
    2ALA    HB1   12  10.777   9.742   9.335 -0.9009  0.9397  1.9497
    2ALA    HB2   13  10.943   9.791   9.355  0.3311 -0.0346  1.5592
    2ALA    HB3   14  10.915   9.631   9.292  0.6129  1.7731 -1.4462
    2ALA      C   15  11.006   9.647   9.567 -0.9728 -0.3712  0.0541
    2ALA      O   16  11.069   9.754   9.558  0.5524  0.0698  0.5290
    3ALA      N   17  11.051   9.546   9.646  0.4975  0.0490  0.2184
    3ALA      H   18  10.994   9.463   9.647 -1.4500  1.1449 -2.9758
    3ALA     CA   19  11.188   9.538   9.697 -0.3119  0.0295 -0.1691
    3ALA     HA   20  11.205   9.623   9.764  0.8537 -0.2300 -0.1129
    3ALA     CB   21  11.186   9.413   9.799 -0.2971 -0.0542 -0.2818
    3ALA    HB1   22  11.108   9.416   9.876  0.6432  0.8495  0.6676
    3ALA    HB2   23  11.186   9.321   9.741  0.7497 -0.7158  0.7550
    3ALA    HB3   24  11.274   9.410   9.863 -2.1552  0.1892  2.4838
    3ALA      C   25  11.313   9.536   9.602  0.2428  0.0162 -0.6778
    3ALA      O   26  11.396   9.454   9.615 -0.4071  0.4764 -0.3005
    4NME      N   27  11.313   9.607   9.490 -0.5362  0.2359 -0.6866
    4NME      H   28  11.240   9.672   9.464 -2.2889 -2.6872 -4.0464
    4NME    CH3   29  11.398   9.592   9.371  0.6495 -0.1512  0.3894
    4NME   HH31   30  11.493   9.635   9.403 -0.2722  0.9828  1.6797
    4NME   HH32   31  11.416   9.487   9.348  0.1087 -0.5221  1.5306
    4NME   HH33   32  11.353   9.652   9.293  0.7584  0.8253  1.0572
  20.99041  20.99041  20.99041
