Protein
   32
    1ACE   HH31    1  11.113  10.577   7.024 -2.1898  0.0073 -1.0060
    1ACE    CH3    2  11.140  10.614   6.925 -0.0760  0.2877 -0.3829
    1ACE   HH32    3  11.057  10.593   6.857 -1.4432 -1.9769  1.7709
    1ACE   HH33    4  11.214  10.549   6.878 -2.6132 -3.1335 -0.0671
    1ACE      C    5  11.175  10.759   6.927 -0.3211  0.0009  0.0524
    1ACE      O    6  11.081  10.842   6.929 -0.1461  0.0876 -0.5987
    2ALA      N    7  11.301  10.790   6.905 -0.0511  0.2924  0.3051
    2ALA      H    8  11.370  10.716   6.906 -0.6042 -0.2422  2.0961
    2ALA     CA    9  11.337  10.912   6.842 -0.3812  0.0448 -0.1162
    2ALA     HA   10  11.271  10.996   6.867 -0.9742 -0.7499  1.1019
    2ALA     CB   11  11.483  10.950   6.892  0.3783 -0.5811  0.3736
    2ALA    HB1   12  11.484  10.995   6.992  1.5619  1.2388 -0.3948
    2ALA    HB2   13  11.552  10.867   6.877 -1.7328 -2.0560 -1.5923
    2ALA    HB3   14  11.518  11.024   6.820 -2.2517  0.2615 -0.1242
    2ALA      C   15  11.325  10.897   6.689  0.9534  0.0681 -0.3568
    2ALA      O   16  11.415  10.839   6.626  0.1931 -0.1055  0.4838
    3ALA      N   17  11.211  10.935   6.629  0.3417 -0.7753 -0.3199
    3ALA      H   18  11.139  10.967   6.692  0.5195 -0.9643 -0.0117
    3ALA     CA   19  11.173  10.903   6.493 -0.1211  0.2033 -0.1906
    3ALA     HA   20  11.258  10.920   6.427  0.1450  1.6500  0.4855
    3ALA     CB   21  11.130  10.757   6.480  0.3519 -0.0246  0.2862
    3ALA    HB1   22  11.047  10.736   6.412  0.0408 -1.0680  0.9669
    3ALA    HB2   23  11.216  10.705   6.438  1.1651  0.8682  0.8191
    3ALA    HB3   24  11.103  10.727   6.581  0.2555  0.1873  0.3257
    3ALA      C   25  11.070  11.002   6.439 -0.0014 -0.1311  0.6740
    3ALA      O   26  10.987  10.966   6.359 -0.1921 -0.2130 -0.0828
    4NME      N   27  11.088  11.131   6.481 -0.1411  0.1759  0.7731
    4NME      H   28  11.168  11.141   6.542  0.1651 -0.6126  0.5047
    4NME    CH3   29  11.000  11.243   6.447 -0.1411 -0.0976 -0.3125
    4NME   HH31   30  11.003  11.242   6.338  1.3124 -2.5265 -0.3387
    4NME   HH32   31  10.895  11.225   6.468 -0.2825  0.5779 -0.4497
    4NME   HH33   32  11.045  11.333   6.488  0.2867 -0.3548 -0.2108
  20.99041  20.99041  20.99041
