Protein
   42
    1ACE   HH31    1   9.542   9.476  11.753  0.1662  0.6235  0.7720
    1ACE    CH3    2   9.644   9.437  11.745 -0.1526 -0.0839 -0.0085
    1ACE   HH32    3   9.710   9.452  11.830  1.2753 -1.9046 -0.7593
    1ACE   HH33    4   9.699   9.475  11.659  0.0301  0.3663  0.3076
    1ACE      C    5   9.625   9.289  11.734  0.1904  0.3611  0.2584
    1ACE      O    6   9.579   9.226  11.826  0.4293  0.4276  0.1780
    2ALA      N    7   9.646   9.243  11.612 -0.5072 -0.1045  0.5111
    2ALA      H    8   9.686   9.306  11.545 -1.1838 -0.1615  0.0538
    2ALA     CA    9   9.656   9.101  11.582  0.2570  0.5104 -0.7405
    2ALA     HA   10   9.559   9.053  11.596  0.4834  0.2462  0.0155
    2ALA     CB   11   9.698   9.072  11.439  0.9152 -0.0471  0.2062
    2ALA    HB1   12   9.806   9.082  11.430  0.7377  1.9480 -0.1419
    2ALA    HB2   13   9.689   8.967  11.410  2.8060  0.0011 -0.7648
    2ALA    HB3   14   9.651   9.137  11.365 -0.8678 -2.7095 -1.1067
    2ALA      C   15   9.752   9.035  11.687 -0.0793 -0.7611 -0.3257
    2ALA      O   16   9.874   9.040  11.667  0.3555 -0.1842  0.6708
    3ALA      N   17   9.702   8.979  11.797 -0.1699  0.2136 -0.3664
    3ALA      H   18   9.601   8.983  11.802 -0.2319 -1.6289  1.3740
    3ALA     CA   19   9.777   8.954  11.925  0.1638 -0.1497 -0.2216
    3ALA     HA   20   9.838   8.865  11.909  2.7827  1.5448 -0.2750
    3ALA     CB   21   9.874   9.069  11.968 -0.4055 -0.2267  0.8337
    3ALA    HB1   22   9.822   9.156  12.008 -0.1332  0.7260 -0.8202
    3ALA    HB2   23   9.950   9.039  12.041 -0.6822  2.5883  2.4148
    3ALA    HB3   24   9.930   9.114  11.886 -0.7425  1.3342  1.4438
    3ALA      C   25   9.679   8.926  12.039  0.0410 -0.2449 -0.2307
    3ALA      O   26   9.698   8.828  12.113  0.3565  0.1543  0.6668
    4ALA      N   27   9.571   9.008  12.058  0.2487 -0.2093  0.1116
    4ALA      H   28   9.587   9.105  12.035  0.8856  0.1160  1.7569
    4ALA     CA   29   9.464   8.999  12.157  0.9957  0.2801 -0.1671
    4ALA     HA   30   9.419   9.098  12.149  3.3857  1.5499  1.1046
    4ALA     CB   31   9.347   8.911  12.105 -0.6946  0.9210 -0.0039
    4ALA    HB1   32   9.350   8.807  12.138 -2.5177  1.0297  0.6165
    4ALA    HB2   33   9.257   8.949  12.152 -0.8336 -1.0947  1.4636
    4ALA    HB3   34   9.330   8.917  11.997 -0.6299  0.1004 -0.0700
    4ALA      C   35   9.492   8.978  12.309 -0.0707  0.5476  0.0275
    4ALA      O   36   9.438   9.053  12.388 -0.6256 -0.4099  0.2176
    5NME      N   37   9.569   8.871  12.346 -0.2538 -0.0271 -0.4735
    5NME      H   38   9.607   8.819  12.268 -1.2330 -1.9082  0.2478
    5NME    CH3   39   9.606   8.835  12.481 -0.5616  0.2401  0.6105
    5NME   HH31   40   9.544   8.759  12.529  1.3531 -0.6328  1.8357
    5NME   HH32   41   9.710   8.804  12.492 -0.3624  0.9681  0.8244
    5NME   HH33   42   9.596   8.928  12.537 -3.1626  1.1789 -1.2134
  20.91516  20.91516  20.91516
