Protein
   42
    1ACE   HH31    1   1.369  17.070  10.070  0.2792  0.1888  1.5453
    1ACE    CH3    2   1.309  16.993  10.117 -0.4351 -0.4209 -0.2530
    1ACE   HH32    3   1.216  17.038  10.151  0.5171  1.3140  0.1706
    1ACE   HH33    4   1.359  16.950  10.205 -0.4834 -0.3611 -0.1966
    1ACE      C    5   1.288  16.878  10.022  0.1464  0.3473 -0.6421
    1ACE      O    6   1.321  16.771  10.072 -1.1423 -0.7606 -0.1075
    2ALA      N    7   1.227  16.896   9.909 -0.2601 -0.9812 -0.2467
    2ALA      H    8   1.219  16.986   9.864  0.0996 -1.3098 -0.9950
    2ALA     CA    9   1.169  16.788   9.834 -0.2672  0.6207  0.2318
    2ALA     HA   10   1.188  16.693   9.882 -1.0763 -1.4601 -3.1820
    2ALA     CB   11   1.017  16.806   9.858  1.1373  0.1550 -0.7368
    2ALA    HB1   12   0.982  16.893   9.802  0.5167 -0.9967 -2.2026
    2ALA    HB2   13   0.963  16.720   9.817  0.3148 -1.3858  3.1614
    2ALA    HB3   14   0.991  16.802   9.963  1.1402  2.4187 -0.6105
    2ALA      C   15   1.206  16.789   9.682  0.0589 -0.5337  0.3802
    2ALA      O   16   1.188  16.889   9.613 -0.0734  0.0974 -0.2007
    3ALA      N   17   1.258  16.682   9.617 -0.4390 -0.5569  0.6208
    3ALA      H   18   1.285  16.707   9.523 -1.6505 -1.3597  0.0169
    3ALA     CA   19   1.306  16.555   9.668  0.0044  0.0712  0.8436
    3ALA     HA   20   1.334  16.501   9.578  2.4472  0.9917  0.9848
    3ALA     CB   21   1.430  16.588   9.748  0.3590 -0.2250  0.3624
    3ALA    HB1   22   1.405  16.627   9.847  2.9800 -2.3505  2.0144
    3ALA    HB2   23   1.493  16.502   9.769 -0.7887 -1.0576  0.5385
    3ALA    HB3   24   1.485  16.663   9.692 -0.7288 -0.5493 -1.1833
    3ALA      C   25   1.201  16.465   9.738  0.6187 -0.2968 -0.4356
    3ALA      O   26   1.088  16.506   9.759  0.1247  1.1132 -0.5278
    4ALA      N   27   1.243  16.346   9.777  0.1020 -0.2730 -0.6165
    4ALA      H   28   1.334  16.313   9.747 -0.7772 -2.7630 -0.7352
    4ALA     CA   29   1.166  16.253   9.869 -0.1130  0.2040  0.2701
    4ALA     HA   30   1.067  16.242   9.824  0.0802 -1.2604  0.1471
    4ALA     CB   31   1.232  16.114   9.877 -0.0358 -0.4238 -0.6851
    4ALA    HB1   32   1.231  16.061   9.782 -0.2015  0.1270 -0.9927
    4ALA    HB2   33   1.327  16.129   9.928  0.1538  0.0007 -1.1426
    4ALA    HB3   34   1.157  16.059   9.934 -0.3652  0.6653 -0.0358
    4ALA      C   35   1.132  16.322  10.005  0.1386  0.3484 -0.2177
    4ALA      O   36   1.145  16.248  10.103  0.4417  0.5997 -0.5552
    5NME      N   37   1.093  16.452  10.017 -0.6183 -0.0257 -0.0140
    5NME      H   38   1.071  16.500   9.931  0.8982 -1.2927 -1.1750
    5NME    CH3   39   1.086  16.530  10.143  1.0982 -0.5019  0.5984
    5NME   HH31   40   1.021  16.488  10.218  1.8266 -0.7349  1.1106
    5NME   HH32   41   1.183  16.547  10.191  2.6952 -2.7808 -1.5637
    5NME   HH33   42   1.037  16.623  10.114  1.5979 -0.2108  0.6574
  20.91516  20.91516  20.91516
